; Created by cgenff_charmm2gmx.py

[ moleculetype ]
; Name			   nrexcl
LIG				 3

[ atoms ]
;	 nr		  type	resnr residue  atom   cgnr	   charge		mass  typeB    chargeB		massB
; residue	 1 LIG rtp LIG q	qsum
     1      CG311      1    LIG     C1      1      0.010     12.011   ;
     2      CG321      1    LIG     C2      2     -0.111     12.011   ;
     3     CG2R61      1    LIG     C3      3     -0.019     12.011   ;
     4     CG2R61      1    LIG     C4      4     -0.123     12.011   ;
     5     CG2R61      1    LIG     C5      5     -0.112     12.011   ;
     6     CG2R61      1    LIG     C6      6     -0.116     12.011   ;
     7     CG2R61      1    LIG     C7      7     -0.112     12.011   ;
     8     CG2R61      1    LIG     C8      8     -0.123     12.011   ;
     9      NG2S1      1    LIG     N1      9     -0.226     14.007   ;
    10      CG2O1      1    LIG     C9     10      0.302     12.011   ;
    11      OG2D1      1    LIG     O1     11     -0.463     15.999   ;
    12       HGP1      1    LIG     H1     12      0.262      1.008   ;
    13     CG2R61      1    LIG    C10     13     -0.104     12.011   ;
    14     CG2R61      1    LIG    C11     14     -0.070     12.011   ;
    15     CG2R61      1    LIG    C12     15      0.233     12.011   ;
    16     CG2R61      1    LIG    C13     16     -0.126     12.011   ;
    17     CG2R61      1    LIG    C14     17     -0.111     12.011   ;
    18     CG2R61      1    LIG    C15     18     -0.060     12.011   ;
    19      NG311      1    LIG     N2     19     -0.570     14.007   ;
    20       HGP1      1    LIG     H2     20      0.319      1.008   ;
    21      SG3O2      1    LIG      S     21      0.546     32.060   ;
    22      OG2P1      1    LIG     O2     22     -0.377     15.999   ;
    23      OG2P1      1    LIG     O3     23     -0.377     15.999   ;
    24     CG2R61      1    LIG    C16     24      0.216     12.011   ;
    25     CG2R61      1    LIG    C17     25     -0.106     12.011   ;
    26     CG2R61      1    LIG    C18     26     -0.113     12.011   ;
    27     CG2R61      1    LIG    C19     27     -0.116     12.011   ;
    28     CG2R61      1    LIG    C20     28     -0.113     12.011   ;
    29     CG2R61      1    LIG    C21     29     -0.106     12.011   ;
    30      CG311      1    LIG    C22     30      0.089     12.011   ;
    31      CG324      1    LIG    C23     31      0.198     12.011   ;
    32      NG3P2      1    LIG     N3     32     -0.406     14.007   ;
    33       HGP2      1    LIG     H3     33      0.329      1.008   ;
    34       HGP2      1    LIG     H4     34      0.329      1.008   ;
    35      CG314      1    LIG    C24     35      0.189     12.011   ;
    36      CG331      1    LIG    C25     36     -0.216     12.011   ;
    37      CG2O1      1    LIG    C26     37      0.385     12.011   ;
    38      OG2D1      1    LIG     O4     38     -0.443     15.999   ;
    39      NG2S1      1    LIG     N4     39     -0.285     14.007   ;
    40       HGP1      1    LIG     H5     40      0.319      1.008   ;
    41      CG311      1    LIG    C27     41     -0.146     12.011   ;
    42      CG321      1    LIG    C28     42     -0.115     12.011   ;
    43      CG321      1    LIG    C29     43     -0.198     12.011   ;
    44      CG321      1    LIG    C30     44     -0.154     12.011   ;
    45      CG321      1    LIG    C31     45     -0.198     12.011   ;
    46      CG321      1    LIG    C32     46     -0.115     12.011   ;
    47      OG311      1    LIG     O5     47     -0.625     15.999   ;
    48       HGP1      1    LIG     H6     48      0.415      1.008   ;
    49       HGA1      1    LIG     HC     49      0.090      1.008   ;
    50       HGA2      1    LIG    HC2     50      0.090      1.008   ;
    51       HGA2      1    LIG    HC3     51      0.090      1.008   ;
    52      HGR61      1    LIG    HC1     52      0.116      1.008   ;
    53      HGR61      1    LIG    HC4     53      0.116      1.008   ;
    54      HGR61      1    LIG    HC5     54      0.116      1.008   ;
    55      HGR61      1    LIG    HC6     55      0.116      1.008   ;
    56      HGR61      1    LIG    HC7     56      0.116      1.008   ;
    57      HGR61      1    LIG    HC8     57      0.116      1.008   ;
    58      HGR61      1    LIG    HC9     58      0.116      1.008   ;
    59      HGR61      1    LIG   HC10     59      0.116      1.008   ;
    60      HGR61      1    LIG   HC11     60      0.116      1.008   ;
    61      HGR61      1    LIG   HC12     61      0.116      1.008   ;
    62      HGR61      1    LIG   HC13     62      0.116      1.008   ;
    63      HGR61      1    LIG   HC14     63      0.116      1.008   ;
    64      HGR61      1    LIG   HC15     64      0.116      1.008   ;
    65      HGR61      1    LIG   HC16     65      0.116      1.008   ;
    66       HGA1      1    LIG   HC17     66      0.090      1.008   ;
    67       HGA2      1    LIG   HC18     67      0.090      1.008   ;
    68       HGA2      1    LIG   HC19     68      0.090      1.008   ;
    69       HGA1      1    LIG   HC20     69      0.090      1.008   ;
    70       HGA3      1    LIG   HC21     70      0.090      1.008   ;
    71       HGA3      1    LIG   HC22     71      0.090      1.008   ;
    72       HGA3      1    LIG   HC23     72      0.090      1.008   ;
    73       HGA1      1    LIG   HC24     73      0.090      1.008   ;
    74       HGA2      1    LIG   HC25     74      0.090      1.008   ;
    75       HGA2      1    LIG   HC26     75      0.090      1.008   ;
    76       HGA2      1    LIG   HC27     76      0.090      1.008   ;
    77       HGA2      1    LIG   HC28     77      0.090      1.008   ;
    78       HGA2      1    LIG   HC29     78      0.090      1.008   ;
    79       HGA2      1    LIG   HC30     79      0.090      1.008   ;
    80       HGA2      1    LIG   HC31     80      0.090      1.008   ;
    81       HGA2      1    LIG   HC32     81      0.090      1.008   ;
    82       HGA2      1    LIG   HC33     82      0.090      1.008   ;
    83       HGA2      1    LIG   HC34     83      0.090      1.008   ;

[ bonds ]
;	ai	  aj funct			  c0			c1			  c2			c3
    1     9	 1 ;       CG311      NG2S1
    1    30	 1 ;       CG311      CG311
    1     2	 1 ;       CG311      CG321
    1    49	 1 ;       CG311       HGA1
    2     3	 1 ;       CG321     CG2R61
    2    50	 1 ;       CG321       HGA2
    2    51	 1 ;       CG321       HGA2
    3     8	 1 ;      CG2R61     CG2R61
    3     4	 1 ;      CG2R61     CG2R61
    4     5	 1 ;      CG2R61     CG2R61
    4    52	 1 ;      CG2R61      HGR61
    5     6	 1 ;      CG2R61     CG2R61
    5    53	 1 ;      CG2R61      HGR61
    6     7	 1 ;      CG2R61     CG2R61
    6    54	 1 ;      CG2R61      HGR61
    7     8	 1 ;      CG2R61     CG2R61
    7    55	 1 ;      CG2R61      HGR61
    8    56	 1 ;      CG2R61      HGR61
    9    10	 1 ;       NG2S1      CG2O1
    9    12	 1 ;       NG2S1       HGP1
   10    13	 1 ;       CG2O1     CG2R61
   10    11	 1 ;       CG2O1      OG2D1
   13    14	 1 ;      CG2R61     CG2R61
   13    18	 1 ;      CG2R61     CG2R61
   14    15	 1 ;      CG2R61     CG2R61
   14    57	 1 ;      CG2R61      HGR61
   15    19	 1 ;      CG2R61      NG311
   15    16	 1 ;      CG2R61     CG2R61
   16    17	 1 ;      CG2R61     CG2R61
   16    58	 1 ;      CG2R61      HGR61
   17    18	 1 ;      CG2R61     CG2R61
   17    59	 1 ;      CG2R61      HGR61
   18    60	 1 ;      CG2R61      HGR61
   19    20	 1 ;       NG311       HGP1
   19    21	 1 ;       NG311      SG3O2
   21    23	 1 ;       SG3O2      OG2P1
   21    24	 1 ;       SG3O2     CG2R61
   21    22	 1 ;       SG3O2      OG2P1
   24    29	 1 ;      CG2R61     CG2R61
   24    25	 1 ;      CG2R61     CG2R61
   25    26	 1 ;      CG2R61     CG2R61
   25    61	 1 ;      CG2R61      HGR61
   26    27	 1 ;      CG2R61     CG2R61
   26    62	 1 ;      CG2R61      HGR61
   27    28	 1 ;      CG2R61     CG2R61
   27    63	 1 ;      CG2R61      HGR61
   28    29	 1 ;      CG2R61     CG2R61
   28    64	 1 ;      CG2R61      HGR61
   29    65	 1 ;      CG2R61      HGR61
   30    31	 1 ;       CG311      CG324
   30    47	 1 ;       CG311      OG311
   30    66	 1 ;       CG311       HGA1
   31    32	 1 ;       CG324      NG3P2
   31    67	 1 ;       CG324       HGA2
   31    68	 1 ;       CG324       HGA2
   32    35	 1 ;       NG3P2      CG314
   32    34	 1 ;       NG3P2       HGP2
   32    33	 1 ;       NG3P2       HGP2
   35    37	 1 ;       CG314      CG2O1
   35    36	 1 ;       CG314      CG331
   35    69	 1 ;       CG314       HGA1
   36    70	 1 ;       CG331       HGA3
   36    71	 1 ;       CG331       HGA3
   36    72	 1 ;       CG331       HGA3
   37    38	 1 ;       CG2O1      OG2D1
   37    39	 1 ;       CG2O1      NG2S1
   39    41	 1 ;       NG2S1      CG311
   39    40	 1 ;       NG2S1       HGP1
   41    42	 1 ;       CG311      CG321
   41    46	 1 ;       CG311      CG321
   41    73	 1 ;       CG311       HGA1
   42    43	 1 ;       CG321      CG321
   42    74	 1 ;       CG321       HGA2
   42    75	 1 ;       CG321       HGA2
   43    44	 1 ;       CG321      CG321
   43    76	 1 ;       CG321       HGA2
   43    77	 1 ;       CG321       HGA2
   44    45	 1 ;       CG321      CG321
   44    78	 1 ;       CG321       HGA2
   44    79	 1 ;       CG321       HGA2
   45    46	 1 ;       CG321      CG321
   45    80	 1 ;       CG321       HGA2
   45    81	 1 ;       CG321       HGA2
   46    82	 1 ;       CG321       HGA2
   46    83	 1 ;       CG321       HGA2
   47    48	 1 ;       OG311       HGP1

[ pairs ]
;	ai	  aj funct			  c0			c1			  c2			c3
    1     8	 1
    1     4	 1
    1    13	 1
    1    11	 1
    1    32	 1
    1    67	 1
    1    68	 1
    1    48	 1
    2    10	 1
    2    12	 1
    2    31	 1
    2    47	 1
    2    66	 1
    2     7	 1
    2    56	 1
    2     5	 1
    2    52	 1
    3     9	 1
    3    30	 1
    3    49	 1
    3     6	 1
    3    53	 1
    3    55	 1
    4    50	 1
    4    51	 1
    4     7	 1
    4    56	 1
    4    54	 1
    5     8	 1
    5    55	 1
    6    52	 1
    6    56	 1
    7    53	 1
    8    50	 1
    8    51	 1
    8    52	 1
    8    54	 1
    9    31	 1
    9    47	 1
    9    66	 1
    9    50	 1
    9    51	 1
    9    14	 1
    9    18	 1
   10    30	 1
   10    49	 1
   10    15	 1
   10    57	 1
   10    17	 1
   10    60	 1
   11    12	 1
   11    14	 1
   11    18	 1
   12    30	 1
   12    49	 1
   12    13	 1
   13    19	 1
   13    16	 1
   13    59	 1
   14    17	 1
   14    60	 1
   14    20	 1
   14    21	 1
   14    58	 1
   15    18	 1
   15    59	 1
   15    23	 1
   15    24	 1
   15    22	 1
   16    57	 1
   16    20	 1
   16    21	 1
   16    60	 1
   17    19	 1
   18    57	 1
   18    58	 1
   19    57	 1
   19    58	 1
   19    29	 1
   19    25	 1
   20    23	 1
   20    24	 1
   20    22	 1
   21    28	 1
   21    65	 1
   21    26	 1
   21    61	 1
   22    29	 1
   22    25	 1
   23    29	 1
   23    25	 1
   24    27	 1
   24    62	 1
   24    64	 1
   25    28	 1
   25    65	 1
   25    63	 1
   26    29	 1
   26    64	 1
   27    61	 1
   27    65	 1
   28    62	 1
   29    61	 1
   29    63	 1
   30    50	 1
   30    51	 1
   30    35	 1
   30    34	 1
   30    33	 1
   31    49	 1
   31    48	 1
   31    37	 1
   31    36	 1
   31    69	 1
   32    47	 1
   32    66	 1
   32    38	 1
   32    39	 1
   32    70	 1
   32    71	 1
   32    72	 1
   33    67	 1
   33    68	 1
   33    37	 1
   33    36	 1
   33    69	 1
   34    67	 1
   34    68	 1
   34    37	 1
   34    36	 1
   34    69	 1
   35    67	 1
   35    68	 1
   35    41	 1
   35    40	 1
   36    38	 1
   36    39	 1
   37    70	 1
   37    71	 1
   37    72	 1
   37    42	 1
   37    46	 1
   37    73	 1
   38    69	 1
   38    41	 1
   38    40	 1
   39    69	 1
   39    43	 1
   39    74	 1
   39    75	 1
   39    45	 1
   39    82	 1
   39    83	 1
   40    42	 1
   40    46	 1
   40    73	 1
   41    44	 1
   41    76	 1
   41    77	 1
   41    80	 1
   41    81	 1
   42    45	 1
   42    82	 1
   42    83	 1
   42    78	 1
   42    79	 1
   43    46	 1
   43    73	 1
   43    80	 1
   43    81	 1
   44    74	 1
   44    75	 1
   44    82	 1
   44    83	 1
   45    73	 1
   45    76	 1
   45    77	 1
   46    74	 1
   46    75	 1
   46    78	 1
   46    79	 1
   47    49	 1
   47    67	 1
   47    68	 1
   48    66	 1
   49    66	 1
   49    50	 1
   49    51	 1
   52    53	 1
   53    54	 1
   54    55	 1
   55    56	 1
   58    59	 1
   59    60	 1
   61    62	 1
   62    63	 1
   63    64	 1
   64    65	 1
   66    67	 1
   66    68	 1
   69    70	 1
   69    71	 1
   69    72	 1
   73    74	 1
   73    75	 1
   73    82	 1
   73    83	 1
   74    76	 1
   74    77	 1
   75    76	 1
   75    77	 1
   76    78	 1
   76    79	 1
   77    78	 1
   77    79	 1
   78    80	 1
   78    81	 1
   79    80	 1
   79    81	 1
   80    82	 1
   80    83	 1
   81    82	 1
   81    83	 1

[ angles ]
;	ai	  aj	ak funct			c0			  c1			c2			  c3
    9     1    30	5 ;      NG2S1      CG311      CG311
    9     1     2	5 ;      NG2S1      CG311      CG321
    9     1    49	5 ;      NG2S1      CG311       HGA1
   30     1     2	5 ;      CG311      CG311      CG321
   30     1    49	5 ;      CG311      CG311       HGA1
    2     1    49	5 ;      CG321      CG311       HGA1
    1     2     3	5 ;      CG311      CG321     CG2R61
    1     2    50	5 ;      CG311      CG321       HGA2
    1     2    51	5 ;      CG311      CG321       HGA2
    3     2    50	5 ;     CG2R61      CG321       HGA2
    3     2    51	5 ;     CG2R61      CG321       HGA2
   50     2    51	5 ;       HGA2      CG321       HGA2
    2     3     8	5 ;      CG321     CG2R61     CG2R61
    2     3     4	5 ;      CG321     CG2R61     CG2R61
    8     3     4	5 ;     CG2R61     CG2R61     CG2R61
    3     4     5	5 ;     CG2R61     CG2R61     CG2R61
    3     4    52	5 ;     CG2R61     CG2R61      HGR61
    5     4    52	5 ;     CG2R61     CG2R61      HGR61
    4     5     6	5 ;     CG2R61     CG2R61     CG2R61
    4     5    53	5 ;     CG2R61     CG2R61      HGR61
    6     5    53	5 ;     CG2R61     CG2R61      HGR61
    7     6     5	5 ;     CG2R61     CG2R61     CG2R61
    7     6    54	5 ;     CG2R61     CG2R61      HGR61
    5     6    54	5 ;     CG2R61     CG2R61      HGR61
    8     7     6	5 ;     CG2R61     CG2R61     CG2R61
    8     7    55	5 ;     CG2R61     CG2R61      HGR61
    6     7    55	5 ;     CG2R61     CG2R61      HGR61
    3     8     7	5 ;     CG2R61     CG2R61     CG2R61
    3     8    56	5 ;     CG2R61     CG2R61      HGR61
    7     8    56	5 ;     CG2R61     CG2R61      HGR61
   10     9    12	5 ;      CG2O1      NG2S1       HGP1
   10     9     1	5 ;      CG2O1      NG2S1      CG311
   12     9     1	5 ;       HGP1      NG2S1      CG311
   13    10    11	5 ;     CG2R61      CG2O1      OG2D1
   13    10     9	5 ;     CG2R61      CG2O1      NG2S1
   11    10     9	5 ;      OG2D1      CG2O1      NG2S1
   14    13    18	5 ;     CG2R61     CG2R61     CG2R61
   14    13    10	5 ;     CG2R61     CG2R61      CG2O1
   18    13    10	5 ;     CG2R61     CG2R61      CG2O1
   15    14    13	5 ;     CG2R61     CG2R61     CG2R61
   15    14    57	5 ;     CG2R61     CG2R61      HGR61
   13    14    57	5 ;     CG2R61     CG2R61      HGR61
   19    15    16	5 ;      NG311     CG2R61     CG2R61
   19    15    14	5 ;      NG311     CG2R61     CG2R61
   16    15    14	5 ;     CG2R61     CG2R61     CG2R61
   15    16    17	5 ;     CG2R61     CG2R61     CG2R61
   15    16    58	5 ;     CG2R61     CG2R61      HGR61
   17    16    58	5 ;     CG2R61     CG2R61      HGR61
   16    17    18	5 ;     CG2R61     CG2R61     CG2R61
   16    17    59	5 ;     CG2R61     CG2R61      HGR61
   18    17    59	5 ;     CG2R61     CG2R61      HGR61
   17    18    13	5 ;     CG2R61     CG2R61     CG2R61
   17    18    60	5 ;     CG2R61     CG2R61      HGR61
   13    18    60	5 ;     CG2R61     CG2R61      HGR61
   20    19    21	5 ;       HGP1      NG311      SG3O2
   20    19    15	5 ;       HGP1      NG311     CG2R61
   21    19    15	5 ;      SG3O2      NG311     CG2R61
   23    21    19	5 ;      OG2P1      SG3O2      NG311
   23    21    24	5 ;      OG2P1      SG3O2     CG2R61
   23    21    22	5 ;      OG2P1      SG3O2      OG2P1
   19    21    24	5 ;      NG311      SG3O2     CG2R61
   19    21    22	5 ;      NG311      SG3O2      OG2P1
   24    21    22	5 ;     CG2R61      SG3O2      OG2P1
   29    24    21	5 ;     CG2R61     CG2R61      SG3O2
   29    24    25	5 ;     CG2R61     CG2R61     CG2R61
   21    24    25	5 ;      SG3O2     CG2R61     CG2R61
   24    25    26	5 ;     CG2R61     CG2R61     CG2R61
   24    25    61	5 ;     CG2R61     CG2R61      HGR61
   26    25    61	5 ;     CG2R61     CG2R61      HGR61
   27    26    25	5 ;     CG2R61     CG2R61     CG2R61
   27    26    62	5 ;     CG2R61     CG2R61      HGR61
   25    26    62	5 ;     CG2R61     CG2R61      HGR61
   28    27    26	5 ;     CG2R61     CG2R61     CG2R61
   28    27    63	5 ;     CG2R61     CG2R61      HGR61
   26    27    63	5 ;     CG2R61     CG2R61      HGR61
   29    28    27	5 ;     CG2R61     CG2R61     CG2R61
   29    28    64	5 ;     CG2R61     CG2R61      HGR61
   27    28    64	5 ;     CG2R61     CG2R61      HGR61
   28    29    24	5 ;     CG2R61     CG2R61     CG2R61
   28    29    65	5 ;     CG2R61     CG2R61      HGR61
   24    29    65	5 ;     CG2R61     CG2R61      HGR61
   31    30     1	5 ;      CG324      CG311      CG311
   31    30    47	5 ;      CG324      CG311      OG311
   31    30    66	5 ;      CG324      CG311       HGA1
    1    30    47	5 ;      CG311      CG311      OG311
    1    30    66	5 ;      CG311      CG311       HGA1
   47    30    66	5 ;      OG311      CG311       HGA1
   32    31    30	5 ;      NG3P2      CG324      CG311
   32    31    67	5 ;      NG3P2      CG324       HGA2
   32    31    68	5 ;      NG3P2      CG324       HGA2
   30    31    67	5 ;      CG311      CG324       HGA2
   30    31    68	5 ;      CG311      CG324       HGA2
   67    31    68	5 ;       HGA2      CG324       HGA2
   35    32    34	5 ;      CG314      NG3P2       HGP2
   35    32    33	5 ;      CG314      NG3P2       HGP2
   35    32    31	5 ;      CG314      NG3P2      CG324
   34    32    33	5 ;       HGP2      NG3P2       HGP2
   34    32    31	5 ;       HGP2      NG3P2      CG324
   33    32    31	5 ;       HGP2      NG3P2      CG324
   37    35    36	5 ;      CG2O1      CG314      CG331
   37    35    32	5 ;      CG2O1      CG314      NG3P2
   37    35    69	5 ;      CG2O1      CG314       HGA1
   36    35    32	5 ;      CG331      CG314      NG3P2
   36    35    69	5 ;      CG331      CG314       HGA1
   32    35    69	5 ;      NG3P2      CG314       HGA1
   35    36    70	5 ;      CG314      CG331       HGA3
   35    36    71	5 ;      CG314      CG331       HGA3
   35    36    72	5 ;      CG314      CG331       HGA3
   70    36    71	5 ;       HGA3      CG331       HGA3
   70    36    72	5 ;       HGA3      CG331       HGA3
   71    36    72	5 ;       HGA3      CG331       HGA3
   38    37    39	5 ;      OG2D1      CG2O1      NG2S1
   38    37    35	5 ;      OG2D1      CG2O1      CG314
   39    37    35	5 ;      NG2S1      CG2O1      CG314
   41    39    37	5 ;      CG311      NG2S1      CG2O1
   41    39    40	5 ;      CG311      NG2S1       HGP1
   37    39    40	5 ;      CG2O1      NG2S1       HGP1
   42    41    46	5 ;      CG321      CG311      CG321
   42    41    39	5 ;      CG321      CG311      NG2S1
   42    41    73	5 ;      CG321      CG311       HGA1
   46    41    39	5 ;      CG321      CG311      NG2S1
   46    41    73	5 ;      CG321      CG311       HGA1
   39    41    73	5 ;      NG2S1      CG311       HGA1
   43    42    41	5 ;      CG321      CG321      CG311
   43    42    74	5 ;      CG321      CG321       HGA2
   43    42    75	5 ;      CG321      CG321       HGA2
   41    42    74	5 ;      CG311      CG321       HGA2
   41    42    75	5 ;      CG311      CG321       HGA2
   74    42    75	5 ;       HGA2      CG321       HGA2
   44    43    42	5 ;      CG321      CG321      CG321
   44    43    76	5 ;      CG321      CG321       HGA2
   44    43    77	5 ;      CG321      CG321       HGA2
   42    43    76	5 ;      CG321      CG321       HGA2
   42    43    77	5 ;      CG321      CG321       HGA2
   76    43    77	5 ;       HGA2      CG321       HGA2
   43    44    45	5 ;      CG321      CG321      CG321
   43    44    78	5 ;      CG321      CG321       HGA2
   43    44    79	5 ;      CG321      CG321       HGA2
   45    44    78	5 ;      CG321      CG321       HGA2
   45    44    79	5 ;      CG321      CG321       HGA2
   78    44    79	5 ;       HGA2      CG321       HGA2
   44    45    46	5 ;      CG321      CG321      CG321
   44    45    80	5 ;      CG321      CG321       HGA2
   44    45    81	5 ;      CG321      CG321       HGA2
   46    45    80	5 ;      CG321      CG321       HGA2
   46    45    81	5 ;      CG321      CG321       HGA2
   80    45    81	5 ;       HGA2      CG321       HGA2
   45    46    41	5 ;      CG321      CG321      CG311
   45    46    82	5 ;      CG321      CG321       HGA2
   45    46    83	5 ;      CG321      CG321       HGA2
   41    46    82	5 ;      CG311      CG321       HGA2
   41    46    83	5 ;      CG311      CG321       HGA2
   82    46    83	5 ;       HGA2      CG321       HGA2
   30    47    48	5 ;      CG311      OG311       HGP1

[ dihedrals ]
;	ai	  aj	ak	  al funct			  c0			c1			  c2			c3			  c4			c5
   30     1     9    10	 9 ;      CG311      CG311      NG2S1      CG2O1
   30     1     9    12	 9 ;      CG311      CG311      NG2S1       HGP1
    2     1     9    10	 9 ;      CG321      CG311      NG2S1      CG2O1
    2     1     9    12	 9 ;      CG321      CG311      NG2S1       HGP1
   49     1     9    10	 9 ;       HGA1      CG311      NG2S1      CG2O1
   49     1     9    12	 9 ;       HGA1      CG311      NG2S1       HGP1
    9     1    30    31	 9 ;      NG2S1      CG311      CG311      CG324
    9     1    30    47	 9 ;      NG2S1      CG311      CG311      OG311
    9     1    30    66	 9 ;      NG2S1      CG311      CG311       HGA1
    2     1    30    31	 9 ;      CG321      CG311      CG311      CG324
    2     1    30    47	 9 ;      CG321      CG311      CG311      OG311
    2     1    30    66	 9 ;      CG321      CG311      CG311       HGA1
   49     1    30    31	 9 ;       HGA1      CG311      CG311      CG324
   49     1    30    47	 9 ;       HGA1      CG311      CG311      OG311
   49     1    30    66	 9 ;       HGA1      CG311      CG311       HGA1
    9     1     2     3	 9 ;      NG2S1      CG311      CG321     CG2R61
    9     1     2    50	 9 ;      NG2S1      CG311      CG321       HGA2
    9     1     2    51	 9 ;      NG2S1      CG311      CG321       HGA2
   30     1     2     3	 9 ;      CG311      CG311      CG321     CG2R61
   30     1     2    50	 9 ;      CG311      CG311      CG321       HGA2
   30     1     2    51	 9 ;      CG311      CG311      CG321       HGA2
   49     1     2     3	 9 ;       HGA1      CG311      CG321     CG2R61
   49     1     2    50	 9 ;       HGA1      CG311      CG321       HGA2
   49     1     2    51	 9 ;       HGA1      CG311      CG321       HGA2
    1     2     3     8	 9 ;      CG311      CG321     CG2R61     CG2R61
    1     2     3     4	 9 ;      CG311      CG321     CG2R61     CG2R61
   50     2     3     8	 9 ;       HGA2      CG321     CG2R61     CG2R61
   50     2     3     4	 9 ;       HGA2      CG321     CG2R61     CG2R61
   51     2     3     8	 9 ;       HGA2      CG321     CG2R61     CG2R61
   51     2     3     4	 9 ;       HGA2      CG321     CG2R61     CG2R61
    2     3     8     7	 9 ;      CG321     CG2R61     CG2R61     CG2R61
    2     3     8    56	 9 ;      CG321     CG2R61     CG2R61      HGR61
    4     3     8     7	 9 ;     CG2R61     CG2R61     CG2R61     CG2R61
    4     3     8    56	 9 ;     CG2R61     CG2R61     CG2R61      HGR61
    2     3     4     5	 9 ;      CG321     CG2R61     CG2R61     CG2R61
    2     3     4    52	 9 ;      CG321     CG2R61     CG2R61      HGR61
    8     3     4     5	 9 ;     CG2R61     CG2R61     CG2R61     CG2R61
    8     3     4    52	 9 ;     CG2R61     CG2R61     CG2R61      HGR61
    3     4     5     6	 9 ;     CG2R61     CG2R61     CG2R61     CG2R61
    3     4     5    53	 9 ;     CG2R61     CG2R61     CG2R61      HGR61
   52     4     5     6	 9 ;      HGR61     CG2R61     CG2R61     CG2R61
   52     4     5    53	 9 ;      HGR61     CG2R61     CG2R61      HGR61
    4     5     6     7	 9 ;     CG2R61     CG2R61     CG2R61     CG2R61
    4     5     6    54	 9 ;     CG2R61     CG2R61     CG2R61      HGR61
   53     5     6     7	 9 ;      HGR61     CG2R61     CG2R61     CG2R61
   53     5     6    54	 9 ;      HGR61     CG2R61     CG2R61      HGR61
    5     6     7     8	 9 ;     CG2R61     CG2R61     CG2R61     CG2R61
    5     6     7    55	 9 ;     CG2R61     CG2R61     CG2R61      HGR61
   54     6     7     8	 9 ;      HGR61     CG2R61     CG2R61     CG2R61
   54     6     7    55	 9 ;      HGR61     CG2R61     CG2R61      HGR61
    6     7     8     3	 9 ;     CG2R61     CG2R61     CG2R61     CG2R61
    6     7     8    56	 9 ;     CG2R61     CG2R61     CG2R61      HGR61
   55     7     8     3	 9 ;      HGR61     CG2R61     CG2R61     CG2R61
   55     7     8    56	 9 ;      HGR61     CG2R61     CG2R61      HGR61
   12     9    10    13	 9 ;       HGP1      NG2S1      CG2O1     CG2R61
   12     9    10    11	 9 ;       HGP1      NG2S1      CG2O1      OG2D1
    1     9    10    13	 9 ;      CG311      NG2S1      CG2O1     CG2R61
    1     9    10    11	 9 ;      CG311      NG2S1      CG2O1      OG2D1
   11    10    13    14	 9 ;      OG2D1      CG2O1     CG2R61     CG2R61
   11    10    13    18	 9 ;      OG2D1      CG2O1     CG2R61     CG2R61
    9    10    13    14	 9 ;      NG2S1      CG2O1     CG2R61     CG2R61
    9    10    13    18	 9 ;      NG2S1      CG2O1     CG2R61     CG2R61
   18    13    14    15	 9 ;     CG2R61     CG2R61     CG2R61     CG2R61
   18    13    14    57	 9 ;     CG2R61     CG2R61     CG2R61      HGR61
   10    13    14    15	 9 ;      CG2O1     CG2R61     CG2R61     CG2R61
   10    13    14    57	 9 ;      CG2O1     CG2R61     CG2R61      HGR61
   14    13    18    17	 9 ;     CG2R61     CG2R61     CG2R61     CG2R61
   14    13    18    60	 9 ;     CG2R61     CG2R61     CG2R61      HGR61
   10    13    18    17	 9 ;      CG2O1     CG2R61     CG2R61     CG2R61
   10    13    18    60	 9 ;      CG2O1     CG2R61     CG2R61      HGR61
   13    14    15    19	 9 ;     CG2R61     CG2R61     CG2R61      NG311
   13    14    15    16	 9 ;     CG2R61     CG2R61     CG2R61     CG2R61
   57    14    15    19	 9 ;      HGR61     CG2R61     CG2R61      NG311
   57    14    15    16	 9 ;      HGR61     CG2R61     CG2R61     CG2R61
   16    15    19    20	 9 ;     CG2R61     CG2R61      NG311       HGP1
   16    15    19    21	 9 ;     CG2R61     CG2R61      NG311      SG3O2
   14    15    19    20	 9 ;     CG2R61     CG2R61      NG311       HGP1
   14    15    19    21	 9 ;     CG2R61     CG2R61      NG311      SG3O2
   19    15    16    17	 9 ;      NG311     CG2R61     CG2R61     CG2R61
   19    15    16    58	 9 ;      NG311     CG2R61     CG2R61      HGR61
   14    15    16    17	 9 ;     CG2R61     CG2R61     CG2R61     CG2R61
   14    15    16    58	 9 ;     CG2R61     CG2R61     CG2R61      HGR61
   15    16    17    18	 9 ;     CG2R61     CG2R61     CG2R61     CG2R61
   15    16    17    59	 9 ;     CG2R61     CG2R61     CG2R61      HGR61
   58    16    17    18	 9 ;      HGR61     CG2R61     CG2R61     CG2R61
   58    16    17    59	 9 ;      HGR61     CG2R61     CG2R61      HGR61
   16    17    18    13	 9 ;     CG2R61     CG2R61     CG2R61     CG2R61
   16    17    18    60	 9 ;     CG2R61     CG2R61     CG2R61      HGR61
   59    17    18    13	 9 ;      HGR61     CG2R61     CG2R61     CG2R61
   59    17    18    60	 9 ;      HGR61     CG2R61     CG2R61      HGR61
   20    19    21    23	 9 ;       HGP1      NG311      SG3O2      OG2P1
   20    19    21    24	 9 ;       HGP1      NG311      SG3O2     CG2R61
   20    19    21    22	 9 ;       HGP1      NG311      SG3O2      OG2P1
   15    19    21    23	 9 ;     CG2R61      NG311      SG3O2      OG2P1
   15    19    21    24	 9 ;     CG2R61      NG311      SG3O2     CG2R61
   15    19    21    22	 9 ;     CG2R61      NG311      SG3O2      OG2P1
   23    21    24    29	 9 ;      OG2P1      SG3O2     CG2R61     CG2R61
   23    21    24    25	 9 ;      OG2P1      SG3O2     CG2R61     CG2R61
   19    21    24    29	 9 ;      NG311      SG3O2     CG2R61     CG2R61
   19    21    24    25	 9 ;      NG311      SG3O2     CG2R61     CG2R61
   22    21    24    29	 9 ;      OG2P1      SG3O2     CG2R61     CG2R61
   22    21    24    25	 9 ;      OG2P1      SG3O2     CG2R61     CG2R61
   21    24    29    28	 9 ;      SG3O2     CG2R61     CG2R61     CG2R61
   21    24    29    65	 9 ;      SG3O2     CG2R61     CG2R61      HGR61
   25    24    29    28	 9 ;     CG2R61     CG2R61     CG2R61     CG2R61
   25    24    29    65	 9 ;     CG2R61     CG2R61     CG2R61      HGR61
   29    24    25    26	 9 ;     CG2R61     CG2R61     CG2R61     CG2R61
   29    24    25    61	 9 ;     CG2R61     CG2R61     CG2R61      HGR61
   21    24    25    26	 9 ;      SG3O2     CG2R61     CG2R61     CG2R61
   21    24    25    61	 9 ;      SG3O2     CG2R61     CG2R61      HGR61
   24    25    26    27	 9 ;     CG2R61     CG2R61     CG2R61     CG2R61
   24    25    26    62	 9 ;     CG2R61     CG2R61     CG2R61      HGR61
   61    25    26    27	 9 ;      HGR61     CG2R61     CG2R61     CG2R61
   61    25    26    62	 9 ;      HGR61     CG2R61     CG2R61      HGR61
   25    26    27    28	 9 ;     CG2R61     CG2R61     CG2R61     CG2R61
   25    26    27    63	 9 ;     CG2R61     CG2R61     CG2R61      HGR61
   62    26    27    28	 9 ;      HGR61     CG2R61     CG2R61     CG2R61
   62    26    27    63	 9 ;      HGR61     CG2R61     CG2R61      HGR61
   26    27    28    29	 9 ;     CG2R61     CG2R61     CG2R61     CG2R61
   26    27    28    64	 9 ;     CG2R61     CG2R61     CG2R61      HGR61
   63    27    28    29	 9 ;      HGR61     CG2R61     CG2R61     CG2R61
   63    27    28    64	 9 ;      HGR61     CG2R61     CG2R61      HGR61
   27    28    29    24	 9 ;     CG2R61     CG2R61     CG2R61     CG2R61
   27    28    29    65	 9 ;     CG2R61     CG2R61     CG2R61      HGR61
   64    28    29    24	 9 ;      HGR61     CG2R61     CG2R61     CG2R61
   64    28    29    65	 9 ;      HGR61     CG2R61     CG2R61      HGR61
    1    30    31    32	 9 ;      CG311      CG311      CG324      NG3P2
    1    30    31    67	 9 ;      CG311      CG311      CG324       HGA2
    1    30    31    68	 9 ;      CG311      CG311      CG324       HGA2
   47    30    31    32	 9 ;      OG311      CG311      CG324      NG3P2
   47    30    31    67	 9 ;      OG311      CG311      CG324       HGA2
   47    30    31    68	 9 ;      OG311      CG311      CG324       HGA2
   66    30    31    32	 9 ;       HGA1      CG311      CG324      NG3P2
   66    30    31    67	 9 ;       HGA1      CG311      CG324       HGA2
   66    30    31    68	 9 ;       HGA1      CG311      CG324       HGA2
   31    30    47    48	 9 ;      CG324      CG311      OG311       HGP1
    1    30    47    48	 9 ;      CG311      CG311      OG311       HGP1
   66    30    47    48	 9 ;       HGA1      CG311      OG311       HGP1
   30    31    32    35	 9 ;      CG311      CG324      NG3P2      CG314
   30    31    32    34	 9 ;      CG311      CG324      NG3P2       HGP2
   30    31    32    33	 9 ;      CG311      CG324      NG3P2       HGP2
   67    31    32    35	 9 ;       HGA2      CG324      NG3P2      CG314
   67    31    32    34	 9 ;       HGA2      CG324      NG3P2       HGP2
   67    31    32    33	 9 ;       HGA2      CG324      NG3P2       HGP2
   68    31    32    35	 9 ;       HGA2      CG324      NG3P2      CG314
   68    31    32    34	 9 ;       HGA2      CG324      NG3P2       HGP2
   68    31    32    33	 9 ;       HGA2      CG324      NG3P2       HGP2
   34    32    35    37	 9 ;       HGP2      NG3P2      CG314      CG2O1
   34    32    35    36	 9 ;       HGP2      NG3P2      CG314      CG331
   34    32    35    69	 9 ;       HGP2      NG3P2      CG314       HGA1
   33    32    35    37	 9 ;       HGP2      NG3P2      CG314      CG2O1
   33    32    35    36	 9 ;       HGP2      NG3P2      CG314      CG331
   33    32    35    69	 9 ;       HGP2      NG3P2      CG314       HGA1
   31    32    35    37	 9 ;      CG324      NG3P2      CG314      CG2O1
   31    32    35    36	 9 ;      CG324      NG3P2      CG314      CG331
   31    32    35    69	 9 ;      CG324      NG3P2      CG314       HGA1
   36    35    37    38	 9 ;      CG331      CG314      CG2O1      OG2D1
   36    35    37    39	 9 ;      CG331      CG314      CG2O1      NG2S1
   32    35    37    38	 9 ;      NG3P2      CG314      CG2O1      OG2D1
   32    35    37    39	 9 ;      NG3P2      CG314      CG2O1      NG2S1
   69    35    37    38	 9 ;       HGA1      CG314      CG2O1      OG2D1
   69    35    37    39	 9 ;       HGA1      CG314      CG2O1      NG2S1
   37    35    36    70	 9 ;      CG2O1      CG314      CG331       HGA3
   37    35    36    71	 9 ;      CG2O1      CG314      CG331       HGA3
   37    35    36    72	 9 ;      CG2O1      CG314      CG331       HGA3
   32    35    36    70	 9 ;      NG3P2      CG314      CG331       HGA3
   32    35    36    71	 9 ;      NG3P2      CG314      CG331       HGA3
   32    35    36    72	 9 ;      NG3P2      CG314      CG331       HGA3
   69    35    36    70	 9 ;       HGA1      CG314      CG331       HGA3
   69    35    36    71	 9 ;       HGA1      CG314      CG331       HGA3
   69    35    36    72	 9 ;       HGA1      CG314      CG331       HGA3
   38    37    39    41	 9 ;      OG2D1      CG2O1      NG2S1      CG311
   38    37    39    40	 9 ;      OG2D1      CG2O1      NG2S1       HGP1
   35    37    39    41	 9 ;      CG314      CG2O1      NG2S1      CG311
   35    37    39    40	 9 ;      CG314      CG2O1      NG2S1       HGP1
   37    39    41    42	 9 ;      CG2O1      NG2S1      CG311      CG321
   37    39    41    46	 9 ;      CG2O1      NG2S1      CG311      CG321
   37    39    41    73	 9 ;      CG2O1      NG2S1      CG311       HGA1
   40    39    41    42	 9 ;       HGP1      NG2S1      CG311      CG321
   40    39    41    46	 9 ;       HGP1      NG2S1      CG311      CG321
   40    39    41    73	 9 ;       HGP1      NG2S1      CG311       HGA1
   46    41    42    43	 9 ;      CG321      CG311      CG321      CG321
   46    41    42    74	 9 ;      CG321      CG311      CG321       HGA2
   46    41    42    75	 9 ;      CG321      CG311      CG321       HGA2
   39    41    42    43	 9 ;      NG2S1      CG311      CG321      CG321
   39    41    42    74	 9 ;      NG2S1      CG311      CG321       HGA2
   39    41    42    75	 9 ;      NG2S1      CG311      CG321       HGA2
   73    41    42    43	 9 ;       HGA1      CG311      CG321      CG321
   73    41    42    74	 9 ;       HGA1      CG311      CG321       HGA2
   73    41    42    75	 9 ;       HGA1      CG311      CG321       HGA2
   42    41    46    45	 9 ;      CG321      CG311      CG321      CG321
   42    41    46    82	 9 ;      CG321      CG311      CG321       HGA2
   42    41    46    83	 9 ;      CG321      CG311      CG321       HGA2
   39    41    46    45	 9 ;      NG2S1      CG311      CG321      CG321
   39    41    46    82	 9 ;      NG2S1      CG311      CG321       HGA2
   39    41    46    83	 9 ;      NG2S1      CG311      CG321       HGA2
   73    41    46    45	 9 ;       HGA1      CG311      CG321      CG321
   73    41    46    82	 9 ;       HGA1      CG311      CG321       HGA2
   73    41    46    83	 9 ;       HGA1      CG311      CG321       HGA2
   41    42    43    44	 9 ;      CG311      CG321      CG321      CG321
   41    42    43    76	 9 ;      CG311      CG321      CG321       HGA2
   41    42    43    77	 9 ;      CG311      CG321      CG321       HGA2
   74    42    43    44	 9 ;       HGA2      CG321      CG321      CG321
   74    42    43    76	 9 ;       HGA2      CG321      CG321       HGA2
   74    42    43    77	 9 ;       HGA2      CG321      CG321       HGA2
   75    42    43    44	 9 ;       HGA2      CG321      CG321      CG321
   75    42    43    76	 9 ;       HGA2      CG321      CG321       HGA2
   75    42    43    77	 9 ;       HGA2      CG321      CG321       HGA2
   42    43    44    45	 9 ;      CG321      CG321      CG321      CG321
   42    43    44    78	 9 ;      CG321      CG321      CG321       HGA2
   42    43    44    79	 9 ;      CG321      CG321      CG321       HGA2
   76    43    44    45	 9 ;       HGA2      CG321      CG321      CG321
   76    43    44    78	 9 ;       HGA2      CG321      CG321       HGA2
   76    43    44    79	 9 ;       HGA2      CG321      CG321       HGA2
   77    43    44    45	 9 ;       HGA2      CG321      CG321      CG321
   77    43    44    78	 9 ;       HGA2      CG321      CG321       HGA2
   77    43    44    79	 9 ;       HGA2      CG321      CG321       HGA2
   43    44    45    46	 9 ;      CG321      CG321      CG321      CG321
   43    44    45    80	 9 ;      CG321      CG321      CG321       HGA2
   43    44    45    81	 9 ;      CG321      CG321      CG321       HGA2
   78    44    45    46	 9 ;       HGA2      CG321      CG321      CG321
   78    44    45    80	 9 ;       HGA2      CG321      CG321       HGA2
   78    44    45    81	 9 ;       HGA2      CG321      CG321       HGA2
   79    44    45    46	 9 ;       HGA2      CG321      CG321      CG321
   79    44    45    80	 9 ;       HGA2      CG321      CG321       HGA2
   79    44    45    81	 9 ;       HGA2      CG321      CG321       HGA2
   44    45    46    41	 9 ;      CG321      CG321      CG321      CG311
   44    45    46    82	 9 ;      CG321      CG321      CG321       HGA2
   44    45    46    83	 9 ;      CG321      CG321      CG321       HGA2
   80    45    46    41	 9 ;       HGA2      CG321      CG321      CG311
   80    45    46    82	 9 ;       HGA2      CG321      CG321       HGA2
   80    45    46    83	 9 ;       HGA2      CG321      CG321       HGA2
   81    45    46    41	 9 ;       HGA2      CG321      CG321      CG311
   81    45    46    82	 9 ;       HGA2      CG321      CG321       HGA2
   81    45    46    83	 9 ;       HGA2      CG321      CG321       HGA2

[ dihedrals ]
;	ai	  aj	ak	  al funct			  c0			c1			  c2			c3
   10    13     9    11	 2
   37    35    39    38	 2

