GROwing Monsters And Cloning Shrimps
   51
    1LIG     O1    1  -1.350   0.793  -1.613
    1LIG     C1    2  -1.340   0.663  -1.569
    1LIG     C2    3  -1.419   0.560  -1.617
    1LIG     C3    4  -1.372   0.428  -1.594
    1LIG     C4    5  -1.273   0.395  -1.501
    1LIG     C5    6  -1.208   0.503  -1.440
    1LIG     C6    7  -1.237   0.635  -1.478
    1LIG     C7    8  -1.543   0.586  -1.704
    1LIG     N1    9  -1.676   0.630  -1.648
    1LIG    HN3   10  -1.696   0.721  -1.606
    1LIG     C8   11  -1.758   0.533  -1.662
    1LIG     N2   12  -1.701   0.413  -1.680
    1LIG     C9   13  -1.677   0.361  -1.542
    1LIG    C10   14  -1.594   0.450  -1.761
    1LIG     O2   15  -1.556   0.393  -1.862
    1LIG    C11   16  -1.506   0.709  -1.784
    1LIG    C12   17  -1.474   0.826  -1.681
    1LIG    C13   18  -1.458   0.958  -1.757
    1LIG    C14   19  -1.572   0.854  -1.564
    1LIG     N3   20  -1.893   0.539  -1.653
    1LIG     H1   21  -1.938   0.449  -1.666
    1LIG     H2   22  -1.933   0.609  -1.714
    1LIG    C15   23  -1.253   0.253  -1.464
    1LIG    C16   24  -1.246   0.211  -1.329
    1LIG    C17   25  -1.212   0.079  -1.300
    1LIG     N4   26  -1.186  -0.014  -1.393
    1LIG    C18   27  -1.195   0.026  -1.522
    1LIG    HN4   28  -1.160  -0.109  -1.368
    1LIG    C19   29  -1.228   0.155  -1.561
    1LIG     HC   30  -1.414   0.348  -1.653
    1LIG    HC1   31  -1.135   0.484  -1.362
    1LIG    HC2   32  -1.179   0.716  -1.437
    1LIG    HN2   33  -1.703   0.666  -1.738
    1LIG    HC3   34  -1.763   0.550  -1.770
    1LIG    HC4   35  -1.631   0.262  -1.548
    1LIG    HC5   36  -1.772   0.353  -1.489
    1LIG    HC6   37  -1.612   0.429  -1.488
    1LIG    HC7   38  -1.418   0.689  -1.845
    1LIG    HC8   39  -1.589   0.738  -1.848
    1LIG    HC9   40  -1.390   0.944  -1.840
    1LIG   HC10   41  -1.555   0.990  -1.794
    1LIG   HC11   42  -1.418   1.034  -1.689
    1LIG   HC12   43  -1.534   0.937  -1.503
    1LIG   HC13   44  -1.670   0.880  -1.604
    1LIG   HC14   45  -1.581   0.765  -1.502
    1LIG    HN1   46  -1.914   0.569  -1.558
    1LIG   HC15   47  -1.267   0.280  -1.250
    1LIG   HC16   48  -1.207   0.050  -1.196
    1LIG   HC17   49  -1.176  -0.047  -1.599
    1LIG   HC18   50  -1.233   0.181  -1.666
    1LIG    H26   51  -1.318   0.052  -1.302
   0.00000   0.00000   0.00000
