; Created by cgenff_charmm2gmx.py

[ moleculetype ]
; Name			   nrexcl
LIG				 3

[ atoms ]
;	 nr		  type	resnr residue  atom   cgnr	   charge		mass  typeB    chargeB		massB
; residue	 1 LIG rtp LIG q	qsum
     1      CG2O1      1    LIG     C1      1      0.302     12.011   ;
     2      OG2D1      1    LIG     O1      2     -0.463     15.999   ;
     3      NG2S1      1    LIG     N1      3     -0.226     14.007   ;
     4       HGP1      1    LIG     H1      4      0.262      1.008   ;
     5     CG2R61      1    LIG     C2      5     -0.098     12.011   ;
     6     CG2R61      1    LIG     C3      6     -0.065     12.011   ;
     7     CG2R61      1    LIG     C4      7      0.139     12.011   ;
     8     CG2R61      1    LIG     C5      8     -0.125     12.011   ;
     9     CG2R61      1    LIG     C6      9      0.141     12.011   ;
    10     CG2R61      1    LIG     C7     10     -0.064     12.011   ;
    11      CG2O5      1    LIG     C8     11      0.182     12.011   ;
    12      OG2D3      1    LIG     O2     12     -0.448     15.999   ;
    13     CG2R61      1    LIG     C9     13      0.133     12.011   ;
    14     CG2R61      1    LIG    C10     14     -0.121     12.011   ;
    15     CG2R61      1    LIG    C11     15     -0.111     12.011   ;
    16     CG2R61      1    LIG    C12     16     -0.116     12.011   ;
    17     CG2R61      1    LIG    C13     17     -0.111     12.011   ;
    18     CG2R61      1    LIG    C14     18     -0.121     12.011   ;
    19      NG301      1    LIG     N2     19     -0.228     14.007   ;
    20      CG331      1    LIG    C15     20     -0.103     12.011   ;
    21      SG3O2      1    LIG      S     21      0.397     32.060   ;
    22      OG2P1      1    LIG     O3     22     -0.388     15.999   ;
    23      OG2P1      1    LIG     O4     23     -0.388     15.999   ;
    24      CG331      1    LIG    C16     24      0.036     12.011   ;
    25      CG311      1    LIG    C17     25      0.010     12.011   ;
    26      CG321      1    LIG    C18     26     -0.111     12.011   ;
    27     CG2R61      1    LIG    C19     27     -0.019     12.011   ;
    28     CG2R61      1    LIG    C20     28     -0.123     12.011   ;
    29     CG2R61      1    LIG    C21     29     -0.112     12.011   ;
    30     CG2R61      1    LIG    C22     30     -0.116     12.011   ;
    31     CG2R61      1    LIG    C23     31     -0.112     12.011   ;
    32     CG2R61      1    LIG    C24     32     -0.123     12.011   ;
    33      CG311      1    LIG    C25     33      0.093     12.011   ;
    34      CG324      1    LIG    C26     34      0.183     12.011   ;
    35      NG3P2      1    LIG     N3     35     -0.409     14.007   ;
    36       HGP2      1    LIG     H2     36      0.335      1.008   ;
    37       HGP2      1    LIG     H3     37      0.335      1.008   ;
    38     CG3C31      1    LIG    C27     38      0.283     12.011   ;
    39     CG3C31      1    LIG    C28     39     -0.179     12.011   ;
    40     CG3C31      1    LIG    C29     40     -0.179     12.011   ;
    41      OG311      1    LIG     O5     41     -0.625     15.999   ;
    42       HGP1      1    LIG     H4     42      0.415      1.008   ;
    43      HGR61      1    LIG     HC     43      0.116      1.008   ;
    44      HGR61      1    LIG    HC1     44      0.116      1.008   ;
    45      HGR61      1    LIG    HC2     45      0.116      1.008   ;
    46      HGR61      1    LIG    HC3     46      0.116      1.008   ;
    47      HGR61      1    LIG    HC4     47      0.116      1.008   ;
    48      HGR61      1    LIG    HC5     48      0.116      1.008   ;
    49      HGR61      1    LIG    HC6     49      0.116      1.008   ;
    50      HGR61      1    LIG    HC7     50      0.116      1.008   ;
    51       HGA1      1    LIG    HC8     51      0.090      1.008   ;
    52       HGA2      1    LIG    HC9     52      0.090      1.008   ;
    53       HGA2      1    LIG   HC10     53      0.090      1.008   ;
    54      HGR61      1    LIG   HC11     54      0.116      1.008   ;
    55      HGR61      1    LIG   HC12     55      0.116      1.008   ;
    56      HGR61      1    LIG   HC13     56      0.116      1.008   ;
    57      HGR61      1    LIG   HC14     57      0.116      1.008   ;
    58      HGR61      1    LIG   HC15     58      0.116      1.008   ;
    59       HGA1      1    LIG   HC16     59      0.090      1.008   ;
    60       HGA2      1    LIG   HC17     60      0.090      1.008   ;
    61       HGA2      1    LIG   HC18     61      0.090      1.008   ;
    62       HGA1      1    LIG   HC19     62      0.090      1.008   ;
    63       HGA2      1    LIG   HC20     63      0.090      1.008   ;
    64       HGA2      1    LIG   HC21     64      0.090      1.008   ;
    65       HGA2      1    LIG   HC22     65      0.090      1.008   ;
    66       HGA2      1    LIG   HC23     66      0.090      1.008   ;
    67       HGA3      1    LIG   HC24     67      0.090      1.008   ;
    68       HGA3      1    LIG   HC25     68      0.090      1.008   ;
    69       HGA3      1    LIG   HC26     69      0.090      1.008   ;
    70       HGA3      1    LIG   HC27     70      0.090      1.008   ;
    71       HGA3      1    LIG   HC28     71      0.090      1.008   ;
    72       HGA3      1    LIG   HC29     72      0.090      1.008   ;

[ bonds ]
;	ai	  aj funct			  c0			c1			  c2			c3
    1     5	 1 ;       CG2O1     CG2R61
    1     2	 1 ;       CG2O1      OG2D1
    1     3	 1 ;       CG2O1      NG2S1
    3    25	 1 ;       NG2S1      CG311
    3     4	 1 ;       NG2S1       HGP1
    5    10	 1 ;      CG2R61     CG2R61
    5     6	 1 ;      CG2R61     CG2R61
    6     7	 1 ;      CG2R61     CG2R61
    6    43	 1 ;      CG2R61      HGR61
    7     8	 1 ;      CG2R61     CG2R61
    7    11	 1 ;      CG2R61      CG2O5
    8     9	 1 ;      CG2R61     CG2R61
    8    44	 1 ;      CG2R61      HGR61
    9    19	 1 ;      CG2R61      NG301
    9    10	 1 ;      CG2R61     CG2R61
   10    45	 1 ;      CG2R61      HGR61
   11    12	 1 ;       CG2O5      OG2D3
   11    13	 1 ;       CG2O5     CG2R61
   13    18	 1 ;      CG2R61     CG2R61
   13    14	 1 ;      CG2R61     CG2R61
   14    15	 1 ;      CG2R61     CG2R61
   14    46	 1 ;      CG2R61      HGR61
   15    16	 1 ;      CG2R61     CG2R61
   15    47	 1 ;      CG2R61      HGR61
   16    17	 1 ;      CG2R61     CG2R61
   16    48	 1 ;      CG2R61      HGR61
   17    18	 1 ;      CG2R61     CG2R61
   17    49	 1 ;      CG2R61      HGR61
   18    50	 1 ;      CG2R61      HGR61
   19    20	 1 ;       NG301      CG331
   19    21	 1 ;       NG301      SG3O2
   20    67	 1 ;       CG331       HGA3
   20    68	 1 ;       CG331       HGA3
   20    69	 1 ;       CG331       HGA3
   21    24	 1 ;       SG3O2      CG331
   21    23	 1 ;       SG3O2      OG2P1
   21    22	 1 ;       SG3O2      OG2P1
   24    70	 1 ;       CG331       HGA3
   24    71	 1 ;       CG331       HGA3
   24    72	 1 ;       CG331       HGA3
   25    33	 1 ;       CG311      CG311
   25    26	 1 ;       CG311      CG321
   25    51	 1 ;       CG311       HGA1
   26    27	 1 ;       CG321     CG2R61
   26    52	 1 ;       CG321       HGA2
   26    53	 1 ;       CG321       HGA2
   27    28	 1 ;      CG2R61     CG2R61
   27    32	 1 ;      CG2R61     CG2R61
   28    29	 1 ;      CG2R61     CG2R61
   28    54	 1 ;      CG2R61      HGR61
   29    30	 1 ;      CG2R61     CG2R61
   29    55	 1 ;      CG2R61      HGR61
   30    31	 1 ;      CG2R61     CG2R61
   30    56	 1 ;      CG2R61      HGR61
   31    32	 1 ;      CG2R61     CG2R61
   31    57	 1 ;      CG2R61      HGR61
   32    58	 1 ;      CG2R61      HGR61
   33    34	 1 ;       CG311      CG324
   33    41	 1 ;       CG311      OG311
   33    59	 1 ;       CG311       HGA1
   34    35	 1 ;       CG324      NG3P2
   34    60	 1 ;       CG324       HGA2
   34    61	 1 ;       CG324       HGA2
   35    37	 1 ;       NG3P2       HGP2
   35    36	 1 ;       NG3P2       HGP2
   35    38	 1 ;       NG3P2     CG3C31
   38    39	 1 ;      CG3C31     CG3C31
   38    40	 1 ;      CG3C31     CG3C31
   38    62	 1 ;      CG3C31       HGA1
   39    40	 1 ;      CG3C31     CG3C31
   39    63	 1 ;      CG3C31       HGA2
   39    64	 1 ;      CG3C31       HGA2
   40    65	 1 ;      CG3C31       HGA2
   40    66	 1 ;      CG3C31       HGA2
   41    42	 1 ;       OG311       HGP1

[ pairs ]
;	ai	  aj funct			  c0			c1			  c2			c3
    1    33	 1
    1    26	 1
    1    51	 1
    1     9	 1
    1    45	 1
    1     7	 1
    1    43	 1
    2    10	 1
    2     6	 1
    2    25	 1
    2     4	 1
    3    10	 1
    3     6	 1
    3    34	 1
    3    41	 1
    3    59	 1
    3    27	 1
    3    52	 1
    3    53	 1
    4     5	 1
    4    33	 1
    4    26	 1
    4    51	 1
    5    25	 1
    5     8	 1
    5    11	 1
    5    19	 1
    6     9	 1
    6    45	 1
    6    44	 1
    6    12	 1
    6    13	 1
    7    10	 1
    7    19	 1
    7    18	 1
    7    14	 1
    8    43	 1
    8    12	 1
    8    13	 1
    8    20	 1
    8    21	 1
    8    45	 1
    9    11	 1
    9    67	 1
    9    68	 1
    9    69	 1
    9    24	 1
    9    23	 1
    9    22	 1
   10    43	 1
   10    44	 1
   10    20	 1
   10    21	 1
   11    43	 1
   11    44	 1
   11    17	 1
   11    50	 1
   11    15	 1
   11    46	 1
   12    18	 1
   12    14	 1
   13    16	 1
   13    47	 1
   13    49	 1
   14    17	 1
   14    50	 1
   14    48	 1
   15    18	 1
   15    49	 1
   16    46	 1
   16    50	 1
   17    47	 1
   18    46	 1
   18    48	 1
   19    44	 1
   19    45	 1
   19    70	 1
   19    71	 1
   19    72	 1
   20    24	 1
   20    23	 1
   20    22	 1
   21    67	 1
   21    68	 1
   21    69	 1
   22    70	 1
   22    71	 1
   22    72	 1
   23    70	 1
   23    71	 1
   23    72	 1
   25    28	 1
   25    32	 1
   25    35	 1
   25    60	 1
   25    61	 1
   25    42	 1
   26    34	 1
   26    41	 1
   26    59	 1
   26    29	 1
   26    54	 1
   26    31	 1
   26    58	 1
   27    33	 1
   27    51	 1
   27    30	 1
   27    55	 1
   27    57	 1
   28    52	 1
   28    53	 1
   28    31	 1
   28    58	 1
   28    56	 1
   29    32	 1
   29    57	 1
   30    54	 1
   30    58	 1
   31    55	 1
   32    52	 1
   32    53	 1
   32    54	 1
   32    56	 1
   33    52	 1
   33    53	 1
   33    37	 1
   33    36	 1
   33    38	 1
   34    51	 1
   34    42	 1
   34    39	 1
   34    40	 1
   34    62	 1
   35    41	 1
   35    59	 1
   35    63	 1
   35    64	 1
   35    65	 1
   35    66	 1
   36    60	 1
   36    61	 1
   36    39	 1
   36    40	 1
   36    62	 1
   37    60	 1
   37    61	 1
   37    39	 1
   37    40	 1
   37    62	 1
   38    60	 1
   38    61	 1
   41    51	 1
   41    60	 1
   41    61	 1
   42    59	 1
   46    47	 1
   47    48	 1
   48    49	 1
   49    50	 1
   51    59	 1
   51    52	 1
   51    53	 1
   54    55	 1
   55    56	 1
   56    57	 1
   57    58	 1
   59    60	 1
   59    61	 1
   62    63	 1
   62    64	 1
   62    65	 1
   62    66	 1
   63    65	 1
   63    66	 1
   64    65	 1
   64    66	 1

[ angles ]
;	ai	  aj	ak funct			c0			  c1			c2			  c3
    5     1     2	5 ;     CG2R61      CG2O1      OG2D1
    5     1     3	5 ;     CG2R61      CG2O1      NG2S1
    2     1     3	5 ;      OG2D1      CG2O1      NG2S1
    1     3    25	5 ;      CG2O1      NG2S1      CG311
    1     3     4	5 ;      CG2O1      NG2S1       HGP1
   25     3     4	5 ;      CG311      NG2S1       HGP1
   10     5     6	5 ;     CG2R61     CG2R61     CG2R61
   10     5     1	5 ;     CG2R61     CG2R61      CG2O1
    6     5     1	5 ;     CG2R61     CG2R61      CG2O1
    7     6     5	5 ;     CG2R61     CG2R61     CG2R61
    7     6    43	5 ;     CG2R61     CG2R61      HGR61
    5     6    43	5 ;     CG2R61     CG2R61      HGR61
    8     7    11	5 ;     CG2R61     CG2R61      CG2O5
    8     7     6	5 ;     CG2R61     CG2R61     CG2R61
   11     7     6	5 ;      CG2O5     CG2R61     CG2R61
    9     8     7	5 ;     CG2R61     CG2R61     CG2R61
    9     8    44	5 ;     CG2R61     CG2R61      HGR61
    7     8    44	5 ;     CG2R61     CG2R61      HGR61
   19     9     8	5 ;      NG301     CG2R61     CG2R61
   19     9    10	5 ;      NG301     CG2R61     CG2R61
    8     9    10	5 ;     CG2R61     CG2R61     CG2R61
    9    10     5	5 ;     CG2R61     CG2R61     CG2R61
    9    10    45	5 ;     CG2R61     CG2R61      HGR61
    5    10    45	5 ;     CG2R61     CG2R61      HGR61
    7    11    12	5 ;     CG2R61      CG2O5      OG2D3
    7    11    13	5 ;     CG2R61      CG2O5     CG2R61
   12    11    13	5 ;      OG2D3      CG2O5     CG2R61
   11    13    18	5 ;      CG2O5     CG2R61     CG2R61
   11    13    14	5 ;      CG2O5     CG2R61     CG2R61
   18    13    14	5 ;     CG2R61     CG2R61     CG2R61
   13    14    15	5 ;     CG2R61     CG2R61     CG2R61
   13    14    46	5 ;     CG2R61     CG2R61      HGR61
   15    14    46	5 ;     CG2R61     CG2R61      HGR61
   14    15    16	5 ;     CG2R61     CG2R61     CG2R61
   14    15    47	5 ;     CG2R61     CG2R61      HGR61
   16    15    47	5 ;     CG2R61     CG2R61      HGR61
   17    16    15	5 ;     CG2R61     CG2R61     CG2R61
   17    16    48	5 ;     CG2R61     CG2R61      HGR61
   15    16    48	5 ;     CG2R61     CG2R61      HGR61
   18    17    16	5 ;     CG2R61     CG2R61     CG2R61
   18    17    49	5 ;     CG2R61     CG2R61      HGR61
   16    17    49	5 ;     CG2R61     CG2R61      HGR61
   13    18    17	5 ;     CG2R61     CG2R61     CG2R61
   13    18    50	5 ;     CG2R61     CG2R61      HGR61
   17    18    50	5 ;     CG2R61     CG2R61      HGR61
   20    19    21	5 ;      CG331      NG301      SG3O2
   20    19     9	5 ;      CG331      NG301     CG2R61
   21    19     9	5 ;      SG3O2      NG301     CG2R61
   19    20    67	5 ;      NG301      CG331       HGA3
   19    20    68	5 ;      NG301      CG331       HGA3
   19    20    69	5 ;      NG301      CG331       HGA3
   67    20    68	5 ;       HGA3      CG331       HGA3
   67    20    69	5 ;       HGA3      CG331       HGA3
   68    20    69	5 ;       HGA3      CG331       HGA3
   24    21    23	5 ;      CG331      SG3O2      OG2P1
   24    21    19	5 ;      CG331      SG3O2      NG301
   24    21    22	5 ;      CG331      SG3O2      OG2P1
   23    21    19	5 ;      OG2P1      SG3O2      NG301
   23    21    22	5 ;      OG2P1      SG3O2      OG2P1
   19    21    22	5 ;      NG301      SG3O2      OG2P1
   21    24    70	5 ;      SG3O2      CG331       HGA3
   21    24    71	5 ;      SG3O2      CG331       HGA3
   21    24    72	5 ;      SG3O2      CG331       HGA3
   70    24    71	5 ;       HGA3      CG331       HGA3
   70    24    72	5 ;       HGA3      CG331       HGA3
   71    24    72	5 ;       HGA3      CG331       HGA3
   33    25     3	5 ;      CG311      CG311      NG2S1
   33    25    26	5 ;      CG311      CG311      CG321
   33    25    51	5 ;      CG311      CG311       HGA1
    3    25    26	5 ;      NG2S1      CG311      CG321
    3    25    51	5 ;      NG2S1      CG311       HGA1
   26    25    51	5 ;      CG321      CG311       HGA1
   25    26    27	5 ;      CG311      CG321     CG2R61
   25    26    52	5 ;      CG311      CG321       HGA2
   25    26    53	5 ;      CG311      CG321       HGA2
   27    26    52	5 ;     CG2R61      CG321       HGA2
   27    26    53	5 ;     CG2R61      CG321       HGA2
   52    26    53	5 ;       HGA2      CG321       HGA2
   26    27    28	5 ;      CG321     CG2R61     CG2R61
   26    27    32	5 ;      CG321     CG2R61     CG2R61
   28    27    32	5 ;     CG2R61     CG2R61     CG2R61
   27    28    29	5 ;     CG2R61     CG2R61     CG2R61
   27    28    54	5 ;     CG2R61     CG2R61      HGR61
   29    28    54	5 ;     CG2R61     CG2R61      HGR61
   28    29    30	5 ;     CG2R61     CG2R61     CG2R61
   28    29    55	5 ;     CG2R61     CG2R61      HGR61
   30    29    55	5 ;     CG2R61     CG2R61      HGR61
   29    30    31	5 ;     CG2R61     CG2R61     CG2R61
   29    30    56	5 ;     CG2R61     CG2R61      HGR61
   31    30    56	5 ;     CG2R61     CG2R61      HGR61
   32    31    30	5 ;     CG2R61     CG2R61     CG2R61
   32    31    57	5 ;     CG2R61     CG2R61      HGR61
   30    31    57	5 ;     CG2R61     CG2R61      HGR61
   27    32    31	5 ;     CG2R61     CG2R61     CG2R61
   27    32    58	5 ;     CG2R61     CG2R61      HGR61
   31    32    58	5 ;     CG2R61     CG2R61      HGR61
   34    33    41	5 ;      CG324      CG311      OG311
   34    33    25	5 ;      CG324      CG311      CG311
   34    33    59	5 ;      CG324      CG311       HGA1
   41    33    25	5 ;      OG311      CG311      CG311
   41    33    59	5 ;      OG311      CG311       HGA1
   25    33    59	5 ;      CG311      CG311       HGA1
   35    34    33	5 ;      NG3P2      CG324      CG311
   35    34    60	5 ;      NG3P2      CG324       HGA2
   35    34    61	5 ;      NG3P2      CG324       HGA2
   33    34    60	5 ;      CG311      CG324       HGA2
   33    34    61	5 ;      CG311      CG324       HGA2
   60    34    61	5 ;       HGA2      CG324       HGA2
   37    35    34	5 ;       HGP2      NG3P2      CG324
   37    35    36	5 ;       HGP2      NG3P2       HGP2
   37    35    38	5 ;       HGP2      NG3P2     CG3C31
   34    35    36	5 ;      CG324      NG3P2       HGP2
   34    35    38	5 ;      CG324      NG3P2     CG3C31
   36    35    38	5 ;       HGP2      NG3P2     CG3C31
   35    38    39	5 ;      NG3P2     CG3C31     CG3C31
   35    38    40	5 ;      NG3P2     CG3C31     CG3C31
   35    38    62	5 ;      NG3P2     CG3C31       HGA1
   39    38    40	5 ;     CG3C31     CG3C31     CG3C31
   39    38    62	5 ;     CG3C31     CG3C31       HGA1
   40    38    62	5 ;     CG3C31     CG3C31       HGA1
   38    39    40	5 ;     CG3C31     CG3C31     CG3C31
   38    39    63	5 ;     CG3C31     CG3C31       HGA2
   38    39    64	5 ;     CG3C31     CG3C31       HGA2
   40    39    63	5 ;     CG3C31     CG3C31       HGA2
   40    39    64	5 ;     CG3C31     CG3C31       HGA2
   63    39    64	5 ;       HGA2     CG3C31       HGA2
   38    40    39	5 ;     CG3C31     CG3C31     CG3C31
   38    40    65	5 ;     CG3C31     CG3C31       HGA2
   38    40    66	5 ;     CG3C31     CG3C31       HGA2
   39    40    65	5 ;     CG3C31     CG3C31       HGA2
   39    40    66	5 ;     CG3C31     CG3C31       HGA2
   65    40    66	5 ;       HGA2     CG3C31       HGA2
   33    41    42	5 ;      CG311      OG311       HGP1

[ dihedrals ]
;	ai	  aj	ak	  al funct			  c0			c1			  c2			c3			  c4			c5
    2     1     5    10	 9 ;      OG2D1      CG2O1     CG2R61     CG2R61
    2     1     5     6	 9 ;      OG2D1      CG2O1     CG2R61     CG2R61
    3     1     5    10	 9 ;      NG2S1      CG2O1     CG2R61     CG2R61
    3     1     5     6	 9 ;      NG2S1      CG2O1     CG2R61     CG2R61
    5     1     3    25	 9 ;     CG2R61      CG2O1      NG2S1      CG311
    5     1     3     4	 9 ;     CG2R61      CG2O1      NG2S1       HGP1
    2     1     3    25	 9 ;      OG2D1      CG2O1      NG2S1      CG311
    2     1     3     4	 9 ;      OG2D1      CG2O1      NG2S1       HGP1
    1     3    25    33	 9 ;      CG2O1      NG2S1      CG311      CG311
    1     3    25    26	 9 ;      CG2O1      NG2S1      CG311      CG321
    1     3    25    51	 9 ;      CG2O1      NG2S1      CG311       HGA1
    4     3    25    33	 9 ;       HGP1      NG2S1      CG311      CG311
    4     3    25    26	 9 ;       HGP1      NG2S1      CG311      CG321
    4     3    25    51	 9 ;       HGP1      NG2S1      CG311       HGA1
    6     5    10     9	 9 ;     CG2R61     CG2R61     CG2R61     CG2R61
    6     5    10    45	 9 ;     CG2R61     CG2R61     CG2R61      HGR61
    1     5    10     9	 9 ;      CG2O1     CG2R61     CG2R61     CG2R61
    1     5    10    45	 9 ;      CG2O1     CG2R61     CG2R61      HGR61
   10     5     6     7	 9 ;     CG2R61     CG2R61     CG2R61     CG2R61
   10     5     6    43	 9 ;     CG2R61     CG2R61     CG2R61      HGR61
    1     5     6     7	 9 ;      CG2O1     CG2R61     CG2R61     CG2R61
    1     5     6    43	 9 ;      CG2O1     CG2R61     CG2R61      HGR61
    5     6     7     8	 9 ;     CG2R61     CG2R61     CG2R61     CG2R61
    5     6     7    11	 9 ;     CG2R61     CG2R61     CG2R61      CG2O5
   43     6     7     8	 9 ;      HGR61     CG2R61     CG2R61     CG2R61
   43     6     7    11	 9 ;      HGR61     CG2R61     CG2R61      CG2O5
   11     7     8     9	 9 ;      CG2O5     CG2R61     CG2R61     CG2R61
   11     7     8    44	 9 ;      CG2O5     CG2R61     CG2R61      HGR61
    6     7     8     9	 9 ;     CG2R61     CG2R61     CG2R61     CG2R61
    6     7     8    44	 9 ;     CG2R61     CG2R61     CG2R61      HGR61
    8     7    11    12	 9 ;     CG2R61     CG2R61      CG2O5      OG2D3
    8     7    11    13	 9 ;     CG2R61     CG2R61      CG2O5     CG2R61
    6     7    11    12	 9 ;     CG2R61     CG2R61      CG2O5      OG2D3
    6     7    11    13	 9 ;     CG2R61     CG2R61      CG2O5     CG2R61
    7     8     9    19	 9 ;     CG2R61     CG2R61     CG2R61      NG301
    7     8     9    10	 9 ;     CG2R61     CG2R61     CG2R61     CG2R61
   44     8     9    19	 9 ;      HGR61     CG2R61     CG2R61      NG301
   44     8     9    10	 9 ;      HGR61     CG2R61     CG2R61     CG2R61
    8     9    19    20	 9 ;     CG2R61     CG2R61      NG301      CG331
    8     9    19    21	 9 ;     CG2R61     CG2R61      NG301      SG3O2
   10     9    19    20	 9 ;     CG2R61     CG2R61      NG301      CG331
   10     9    19    21	 9 ;     CG2R61     CG2R61      NG301      SG3O2
   19     9    10     5	 9 ;      NG301     CG2R61     CG2R61     CG2R61
   19     9    10    45	 9 ;      NG301     CG2R61     CG2R61      HGR61
    8     9    10     5	 9 ;     CG2R61     CG2R61     CG2R61     CG2R61
    8     9    10    45	 9 ;     CG2R61     CG2R61     CG2R61      HGR61
    7    11    13    18	 9 ;     CG2R61      CG2O5     CG2R61     CG2R61
    7    11    13    14	 9 ;     CG2R61      CG2O5     CG2R61     CG2R61
   12    11    13    18	 9 ;      OG2D3      CG2O5     CG2R61     CG2R61
   12    11    13    14	 9 ;      OG2D3      CG2O5     CG2R61     CG2R61
   11    13    18    17	 9 ;      CG2O5     CG2R61     CG2R61     CG2R61
   11    13    18    50	 9 ;      CG2O5     CG2R61     CG2R61      HGR61
   14    13    18    17	 9 ;     CG2R61     CG2R61     CG2R61     CG2R61
   14    13    18    50	 9 ;     CG2R61     CG2R61     CG2R61      HGR61
   11    13    14    15	 9 ;      CG2O5     CG2R61     CG2R61     CG2R61
   11    13    14    46	 9 ;      CG2O5     CG2R61     CG2R61      HGR61
   18    13    14    15	 9 ;     CG2R61     CG2R61     CG2R61     CG2R61
   18    13    14    46	 9 ;     CG2R61     CG2R61     CG2R61      HGR61
   13    14    15    16	 9 ;     CG2R61     CG2R61     CG2R61     CG2R61
   13    14    15    47	 9 ;     CG2R61     CG2R61     CG2R61      HGR61
   46    14    15    16	 9 ;      HGR61     CG2R61     CG2R61     CG2R61
   46    14    15    47	 9 ;      HGR61     CG2R61     CG2R61      HGR61
   14    15    16    17	 9 ;     CG2R61     CG2R61     CG2R61     CG2R61
   14    15    16    48	 9 ;     CG2R61     CG2R61     CG2R61      HGR61
   47    15    16    17	 9 ;      HGR61     CG2R61     CG2R61     CG2R61
   47    15    16    48	 9 ;      HGR61     CG2R61     CG2R61      HGR61
   15    16    17    18	 9 ;     CG2R61     CG2R61     CG2R61     CG2R61
   15    16    17    49	 9 ;     CG2R61     CG2R61     CG2R61      HGR61
   48    16    17    18	 9 ;      HGR61     CG2R61     CG2R61     CG2R61
   48    16    17    49	 9 ;      HGR61     CG2R61     CG2R61      HGR61
   16    17    18    13	 9 ;     CG2R61     CG2R61     CG2R61     CG2R61
   16    17    18    50	 9 ;     CG2R61     CG2R61     CG2R61      HGR61
   49    17    18    13	 9 ;      HGR61     CG2R61     CG2R61     CG2R61
   49    17    18    50	 9 ;      HGR61     CG2R61     CG2R61      HGR61
   21    19    20    67	 9 ;      SG3O2      NG301      CG331       HGA3
   21    19    20    68	 9 ;      SG3O2      NG301      CG331       HGA3
   21    19    20    69	 9 ;      SG3O2      NG301      CG331       HGA3
    9    19    20    67	 9 ;     CG2R61      NG301      CG331       HGA3
    9    19    20    68	 9 ;     CG2R61      NG301      CG331       HGA3
    9    19    20    69	 9 ;     CG2R61      NG301      CG331       HGA3
   20    19    21    24	 9 ;      CG331      NG301      SG3O2      CG331
   20    19    21    23	 9 ;      CG331      NG301      SG3O2      OG2P1
   20    19    21    22	 9 ;      CG331      NG301      SG3O2      OG2P1
    9    19    21    24	 9 ;     CG2R61      NG301      SG3O2      CG331
    9    19    21    23	 9 ;     CG2R61      NG301      SG3O2      OG2P1
    9    19    21    22	 9 ;     CG2R61      NG301      SG3O2      OG2P1
   23    21    24    70	 9 ;      OG2P1      SG3O2      CG331       HGA3
   23    21    24    71	 9 ;      OG2P1      SG3O2      CG331       HGA3
   23    21    24    72	 9 ;      OG2P1      SG3O2      CG331       HGA3
   19    21    24    70	 9 ;      NG301      SG3O2      CG331       HGA3
   19    21    24    71	 9 ;      NG301      SG3O2      CG331       HGA3
   19    21    24    72	 9 ;      NG301      SG3O2      CG331       HGA3
   22    21    24    70	 9 ;      OG2P1      SG3O2      CG331       HGA3
   22    21    24    71	 9 ;      OG2P1      SG3O2      CG331       HGA3
   22    21    24    72	 9 ;      OG2P1      SG3O2      CG331       HGA3
    3    25    33    34	 9 ;      NG2S1      CG311      CG311      CG324
    3    25    33    41	 9 ;      NG2S1      CG311      CG311      OG311
    3    25    33    59	 9 ;      NG2S1      CG311      CG311       HGA1
   26    25    33    34	 9 ;      CG321      CG311      CG311      CG324
   26    25    33    41	 9 ;      CG321      CG311      CG311      OG311
   26    25    33    59	 9 ;      CG321      CG311      CG311       HGA1
   51    25    33    34	 9 ;       HGA1      CG311      CG311      CG324
   51    25    33    41	 9 ;       HGA1      CG311      CG311      OG311
   51    25    33    59	 9 ;       HGA1      CG311      CG311       HGA1
   33    25    26    27	 9 ;      CG311      CG311      CG321     CG2R61
   33    25    26    52	 9 ;      CG311      CG311      CG321       HGA2
   33    25    26    53	 9 ;      CG311      CG311      CG321       HGA2
    3    25    26    27	 9 ;      NG2S1      CG311      CG321     CG2R61
    3    25    26    52	 9 ;      NG2S1      CG311      CG321       HGA2
    3    25    26    53	 9 ;      NG2S1      CG311      CG321       HGA2
   51    25    26    27	 9 ;       HGA1      CG311      CG321     CG2R61
   51    25    26    52	 9 ;       HGA1      CG311      CG321       HGA2
   51    25    26    53	 9 ;       HGA1      CG311      CG321       HGA2
   25    26    27    28	 9 ;      CG311      CG321     CG2R61     CG2R61
   25    26    27    32	 9 ;      CG311      CG321     CG2R61     CG2R61
   52    26    27    28	 9 ;       HGA2      CG321     CG2R61     CG2R61
   52    26    27    32	 9 ;       HGA2      CG321     CG2R61     CG2R61
   53    26    27    28	 9 ;       HGA2      CG321     CG2R61     CG2R61
   53    26    27    32	 9 ;       HGA2      CG321     CG2R61     CG2R61
   26    27    28    29	 9 ;      CG321     CG2R61     CG2R61     CG2R61
   26    27    28    54	 9 ;      CG321     CG2R61     CG2R61      HGR61
   32    27    28    29	 9 ;     CG2R61     CG2R61     CG2R61     CG2R61
   32    27    28    54	 9 ;     CG2R61     CG2R61     CG2R61      HGR61
   26    27    32    31	 9 ;      CG321     CG2R61     CG2R61     CG2R61
   26    27    32    58	 9 ;      CG321     CG2R61     CG2R61      HGR61
   28    27    32    31	 9 ;     CG2R61     CG2R61     CG2R61     CG2R61
   28    27    32    58	 9 ;     CG2R61     CG2R61     CG2R61      HGR61
   27    28    29    30	 9 ;     CG2R61     CG2R61     CG2R61     CG2R61
   27    28    29    55	 9 ;     CG2R61     CG2R61     CG2R61      HGR61
   54    28    29    30	 9 ;      HGR61     CG2R61     CG2R61     CG2R61
   54    28    29    55	 9 ;      HGR61     CG2R61     CG2R61      HGR61
   28    29    30    31	 9 ;     CG2R61     CG2R61     CG2R61     CG2R61
   28    29    30    56	 9 ;     CG2R61     CG2R61     CG2R61      HGR61
   55    29    30    31	 9 ;      HGR61     CG2R61     CG2R61     CG2R61
   55    29    30    56	 9 ;      HGR61     CG2R61     CG2R61      HGR61
   29    30    31    32	 9 ;     CG2R61     CG2R61     CG2R61     CG2R61
   29    30    31    57	 9 ;     CG2R61     CG2R61     CG2R61      HGR61
   56    30    31    32	 9 ;      HGR61     CG2R61     CG2R61     CG2R61
   56    30    31    57	 9 ;      HGR61     CG2R61     CG2R61      HGR61
   30    31    32    27	 9 ;     CG2R61     CG2R61     CG2R61     CG2R61
   30    31    32    58	 9 ;     CG2R61     CG2R61     CG2R61      HGR61
   57    31    32    27	 9 ;      HGR61     CG2R61     CG2R61     CG2R61
   57    31    32    58	 9 ;      HGR61     CG2R61     CG2R61      HGR61
   41    33    34    35	 9 ;      OG311      CG311      CG324      NG3P2
   41    33    34    60	 9 ;      OG311      CG311      CG324       HGA2
   41    33    34    61	 9 ;      OG311      CG311      CG324       HGA2
   25    33    34    35	 9 ;      CG311      CG311      CG324      NG3P2
   25    33    34    60	 9 ;      CG311      CG311      CG324       HGA2
   25    33    34    61	 9 ;      CG311      CG311      CG324       HGA2
   59    33    34    35	 9 ;       HGA1      CG311      CG324      NG3P2
   59    33    34    60	 9 ;       HGA1      CG311      CG324       HGA2
   59    33    34    61	 9 ;       HGA1      CG311      CG324       HGA2
   34    33    41    42	 9 ;      CG324      CG311      OG311       HGP1
   25    33    41    42	 9 ;      CG311      CG311      OG311       HGP1
   59    33    41    42	 9 ;       HGA1      CG311      OG311       HGP1
   33    34    35    37	 9 ;      CG311      CG324      NG3P2       HGP2
   33    34    35    36	 9 ;      CG311      CG324      NG3P2       HGP2
   33    34    35    38	 9 ;      CG311      CG324      NG3P2     CG3C31
   60    34    35    37	 9 ;       HGA2      CG324      NG3P2       HGP2
   60    34    35    36	 9 ;       HGA2      CG324      NG3P2       HGP2
   60    34    35    38	 9 ;       HGA2      CG324      NG3P2     CG3C31
   61    34    35    37	 9 ;       HGA2      CG324      NG3P2       HGP2
   61    34    35    36	 9 ;       HGA2      CG324      NG3P2       HGP2
   61    34    35    38	 9 ;       HGA2      CG324      NG3P2     CG3C31
   37    35    38    39	 9 ;       HGP2      NG3P2     CG3C31     CG3C31
   37    35    38    40	 9 ;       HGP2      NG3P2     CG3C31     CG3C31
   37    35    38    62	 9 ;       HGP2      NG3P2     CG3C31       HGA1
   34    35    38    39	 9 ;      CG324      NG3P2     CG3C31     CG3C31
   34    35    38    40	 9 ;      CG324      NG3P2     CG3C31     CG3C31
   34    35    38    62	 9 ;      CG324      NG3P2     CG3C31       HGA1
   36    35    38    39	 9 ;       HGP2      NG3P2     CG3C31     CG3C31
   36    35    38    40	 9 ;       HGP2      NG3P2     CG3C31     CG3C31
   36    35    38    62	 9 ;       HGP2      NG3P2     CG3C31       HGA1
   35    38    39    40	 9 ;      NG3P2     CG3C31     CG3C31     CG3C31
   35    38    39    63	 9 ;      NG3P2     CG3C31     CG3C31       HGA2
   35    38    39    64	 9 ;      NG3P2     CG3C31     CG3C31       HGA2
   40    38    39    63	 9 ;     CG3C31     CG3C31     CG3C31       HGA2
   40    38    39    64	 9 ;     CG3C31     CG3C31     CG3C31       HGA2
   62    38    39    40	 9 ;       HGA1     CG3C31     CG3C31     CG3C31
   62    38    39    63	 9 ;       HGA1     CG3C31     CG3C31       HGA2
   62    38    39    64	 9 ;       HGA1     CG3C31     CG3C31       HGA2
   35    38    40    39	 9 ;      NG3P2     CG3C31     CG3C31     CG3C31
   35    38    40    65	 9 ;      NG3P2     CG3C31     CG3C31       HGA2
   35    38    40    66	 9 ;      NG3P2     CG3C31     CG3C31       HGA2
   39    38    40    65	 9 ;     CG3C31     CG3C31     CG3C31       HGA2
   39    38    40    66	 9 ;     CG3C31     CG3C31     CG3C31       HGA2
   62    38    40    39	 9 ;       HGA1     CG3C31     CG3C31     CG3C31
   62    38    40    65	 9 ;       HGA1     CG3C31     CG3C31       HGA2
   62    38    40    66	 9 ;       HGA1     CG3C31     CG3C31       HGA2
   38    39    40    65	 9 ;     CG3C31     CG3C31     CG3C31       HGA2
   38    39    40    66	 9 ;     CG3C31     CG3C31     CG3C31       HGA2
   63    39    40    38	 9 ;       HGA2     CG3C31     CG3C31     CG3C31
   63    39    40    65	 9 ;       HGA2     CG3C31     CG3C31       HGA2
   63    39    40    66	 9 ;       HGA2     CG3C31     CG3C31       HGA2
   64    39    40    38	 9 ;       HGA2     CG3C31     CG3C31     CG3C31
   64    39    40    65	 9 ;       HGA2     CG3C31     CG3C31       HGA2
   64    39    40    66	 9 ;       HGA2     CG3C31     CG3C31       HGA2

[ dihedrals ]
;	ai	  aj	ak	  al funct			  c0			c1			  c2			c3
    1     5     3     2	 2
   11     7    13    12	 2

