Georgetown Riga Oslo Madrid Amsterdam Chisinau Stockholm
   72
    1LIG     C1    1  -1.246   0.428  -1.374
    1LIG     O1    2  -1.187   0.466  -1.273
    1LIG     N1    3  -1.323   0.317  -1.359
    1LIG     H1    4  -1.356   0.324  -1.262
    1LIG     C2    5  -1.227   0.503  -1.500
    1LIG     C3    6  -1.312   0.604  -1.544
    1LIG     C4    7  -1.288   0.669  -1.667
    1LIG     C5    8  -1.174   0.636  -1.740
    1LIG     C6    9  -1.082   0.545  -1.691
    1LIG     C7   10  -1.109   0.477  -1.572
    1LIG     C8   11  -1.390   0.765  -1.719
    1LIG     O2   12  -1.352   0.866  -1.777
    1LIG     C9   13  -1.535   0.746  -1.692
    1LIG    C10   14  -1.601   0.817  -1.592
    1LIG    C11   15  -1.740   0.804  -1.577
    1LIG    C12   16  -1.811   0.718  -1.661
    1LIG    C13   17  -1.743   0.644  -1.759
    1LIG    C14   18  -1.605   0.658  -1.774
    1LIG     N2   19  -0.965   0.518  -1.770
    1LIG    C15   20  -0.989   0.465  -1.906
    1LIG      S   21  -0.840   0.631  -1.749
    1LIG     O3   22  -0.851   0.688  -1.617
    1LIG     O4   23  -0.837   0.716  -1.867
    1LIG    C16   24  -0.696   0.526  -1.750
    1LIG    C17   25  -1.417   0.237  -1.439
    1LIG    C18   26  -1.502   0.309  -1.547
    1LIG    C19   27  -1.640   0.369  -1.525
    1LIG    C20   28  -1.755   0.309  -1.581
    1LIG    C21   29  -1.883   0.341  -1.536
    1LIG    C22   30  -1.899   0.434  -1.432
    1LIG    C23   31  -1.788   0.496  -1.378
    1LIG    C24   32  -1.659   0.465  -1.425
    1LIG    C25   33  -1.341   0.109  -1.486
    1LIG    C26   34  -1.189   0.099  -1.460
    1LIG     N3   35  -1.142   0.012  -1.348
    1LIG     H2   36  -1.181  -0.082  -1.367
    1LIG     H3   37  -1.040   0.001  -1.365
    1LIG    C27   38  -1.151   0.028  -1.202
    1LIG    C28   39  -1.220  -0.082  -1.125
    1LIG    C29   40  -1.272   0.058  -1.118
    1LIG     O5   41  -1.403  -0.004  -1.422
    1LIG     H4   42  -1.475   0.028  -1.364
    1LIG     HC   43  -1.398   0.632  -1.484
    1LIG    HC1   44  -1.158   0.682  -1.837
    1LIG    HC2   45  -1.038   0.403  -1.535
    1LIG    HC3   46  -1.546   0.882  -1.525
    1LIG    HC4   47  -1.792   0.860  -1.501
    1LIG    HC5   48  -1.918   0.708  -1.651
    1LIG    HC6   49  -1.798   0.576  -1.823
    1LIG    HC7   50  -1.553   0.600  -1.849
    1LIG    HC8   51  -1.490   0.200  -1.367
    1LIG    HC9   52  -1.440   0.391  -1.583
    1LIG   HC10   53  -1.511   0.239  -1.630
    1LIG   HC11   54  -1.743   0.237  -1.660
    1LIG   HC12   55  -1.969   0.294  -1.580
    1LIG   HC13   56  -1.998   0.457  -1.395
    1LIG   HC14   57  -1.800   0.568  -1.299
    1LIG   HC15   58  -1.573   0.516  -1.383
    1LIG   HC16   59  -1.357   0.099  -1.594
    1LIG   HC17   60  -1.143   0.061  -1.551
    1LIG   HC18   61  -1.151   0.199  -1.442
    1LIG   HC19   62  -1.058   0.061  -1.156
    1LIG   HC20   63  -1.172  -0.126  -1.037
    1LIG   HC21   64  -1.279  -0.151  -1.185
    1LIG   HC22   65  -1.367   0.084  -1.166
    1LIG   HC23   66  -1.252   0.111  -1.025
    1LIG   HC24   67  -0.894   0.450  -1.956
    1LIG   HC25   68  -1.049   0.536  -1.963
    1LIG   HC26   69  -1.043   0.370  -1.899
    1LIG   HC27   70  -0.606   0.587  -1.737
    1LIG   HC28   71  -0.690   0.472  -1.844
    1LIG   HC29   72  -0.703   0.454  -1.668
   0.00000   0.00000   0.00000
