; Created by cgenff_charmm2gmx.py

[ moleculetype ]
; Name			   nrexcl
LIG				 3

[ atoms ]
;	 nr		  type	resnr residue  atom   cgnr	   charge		mass  typeB    chargeB		massB
; residue	 1 LIG rtp LIG q	qsum
     1      CG311      1    LIG     C1      1      0.346     12.011   ;
     2      NG311      1    LIG     N1      2     -0.864     14.007   ;
     3     HGPAM1      1    LIG     HN      3      0.350      1.008   ;
     4      CG301      1    LIG     C2      4      0.375     12.011   ;
     5      CG321      1    LIG     C3      5     -0.230     12.011   ;
     6     CG2R61      1    LIG     C4      6      0.075     12.011   ;
     7     CG2R61      1    LIG     C5      7     -0.052     12.011   ;
     8     CG2R61      1    LIG     C6      8     -0.108     12.011   ;
     9     CG2R61      1    LIG     C7      9     -0.099     12.011   ;
    10     CG2R61      1    LIG     C8     10      0.048     12.011   ;
    11      CLGR1      1    LIG     CL     11     -0.200     35.453   ;
    12     CG2R61      1    LIG     C9     12     -0.121     12.011   ;
    13      CG331      1    LIG    C10     13     -0.295     12.011   ;
    14      CG331      1    LIG    C11     14     -0.295     12.011   ;
    15      NG311      1    LIG     N2     15     -0.806     14.007   ;
    16     HGPAM1      1    LIG      H     16      0.362      1.008   ;
    17      CG311      1    LIG     CA     17     -0.001     12.011   ;
    18      CG321      1    LIG    C12     18     -0.189     12.011   ;
    19     CG2R51      1    LIG    C13     19      0.017     12.011   ;
    20     CG2R51      1    LIG    C14     20     -0.226     12.011   ;
    21     CG2R51      1    LIG    C15     21     -0.166     12.011   ;
    22     SG2R50      1    LIG      S     22     -0.025     32.060   ;
    23     CG2R51      1    LIG    C16     23      0.021     12.011   ;
    24      BRGR1      1    LIG     BR     24     -0.107     79.904   ;
    25      CG2O3      1    LIG    C17     25      0.898     12.011   ;
    26      OG2D2      1    LIG      O     26     -0.832     15.999   ;
    27      OG2D2      1    LIG    OXT     27     -0.832     15.999   ;
    28       HGA2      1    LIG    HC2     28      0.090      1.008   ;
    29       HGA2      1    LIG    HC3     29      0.090      1.008   ;
    30      HGR61      1    LIG     HC     30      0.116      1.008   ;
    31      HGR62      1    LIG    HC1     31      0.150      1.008   ;
    32      HGR62      1    LIG    HC4     32      0.145      1.008   ;
    33       HGA3      1    LIG    HC5     33      0.090      1.008   ;
    34       HGA3      1    LIG    HC6     34      0.090      1.008   ;
    35       HGA3      1    LIG    HC7     35      0.090      1.008   ;
    36       HGA3      1    LIG    HC8     36      0.090      1.008   ;
    37       HGA3      1    LIG    HC9     37      0.090      1.008   ;
    38       HGA3      1    LIG   HC10     38      0.090      1.008   ;
    39       HGA1      1    LIG   HC11     39      0.090      1.008   ;
    40       HGA2      1    LIG   HC12     40      0.090      1.008   ;
    41       HGA2      1    LIG   HC13     41      0.090      1.008   ;
    42      HGR51      1    LIG   HC14     42      0.176      1.008   ;
    43      HGR52      1    LIG   HC15     43      0.189      1.008   ;
    44       HGA1      1    LIG    H19     44      0.090      1.008   ;
    45        LPH      1    LIG    LP1     45      0.050      0.000   ;
    46        LPH      1    LIG    LP2     46      0.050      0.000   ;

[ bonds ]
;	ai	  aj funct			  c0			c1			  c2			c3
    1    15	 1 ;       CG311      NG311
    1     2	 1 ;       CG311      NG311
    1     7	 1 ;       CG311     CG2R61
    1    44	 1 ;       CG311       HGA1
    2     3	 1 ;       NG311     HGPAM1
    2     4	 1 ;       NG311      CG301
    4    13	 1 ;       CG301      CG331
    4     5	 1 ;       CG301      CG321
    4    14	 1 ;       CG301      CG331
    5     6	 1 ;       CG321     CG2R61
    5    28	 1 ;       CG321       HGA2
    5    29	 1 ;       CG321       HGA2
    6     7	 1 ;      CG2R61     CG2R61
    6    12	 1 ;      CG2R61     CG2R61
    7     8	 1 ;      CG2R61     CG2R61
    8     9	 1 ;      CG2R61     CG2R61
    8    30	 1 ;      CG2R61      HGR61
    9    10	 1 ;      CG2R61     CG2R61
    9    31	 1 ;      CG2R61      HGR62
   10    12	 1 ;      CG2R61     CG2R61
   10    11	 1 ;      CG2R61      CLGR1
   12    32	 1 ;      CG2R61      HGR62
   13    33	 1 ;       CG331       HGA3
   13    34	 1 ;       CG331       HGA3
   13    35	 1 ;       CG331       HGA3
   14    36	 1 ;       CG331       HGA3
   14    37	 1 ;       CG331       HGA3
   14    38	 1 ;       CG331       HGA3
   15    17	 1 ;       NG311      CG311
   15    16	 1 ;       NG311     HGPAM1
   17    25	 1 ;       CG311      CG2O3
   17    18	 1 ;       CG311      CG321
   17    39	 1 ;       CG311       HGA1
   18    19	 1 ;       CG321     CG2R51
   18    40	 1 ;       CG321       HGA2
   18    41	 1 ;       CG321       HGA2
   19    23	 1 ;      CG2R51     CG2R51
   19    20	 1 ;      CG2R51     CG2R51
   20    21	 1 ;      CG2R51     CG2R51
   20    42	 1 ;      CG2R51      HGR51
   21    22	 1 ;      CG2R51     SG2R50
   21    43	 1 ;      CG2R51      HGR52
   22    23	 1 ;      SG2R50     CG2R51
   23    24	 1 ;      CG2R51      BRGR1
   25    26	 1 ;       CG2O3      OG2D2
   25    27	 1 ;       CG2O3      OG2D2

[ pairs ]
;	ai	  aj funct			  c0			c1			  c2			c3
    1    13	 1
    1     5	 1
    1    14	 1
    1    12	 1
    1     9	 1
    1    30	 1
    1    25	 1
    1    18	 1
    1    39	 1
    2    17	 1
    2    16	 1
    2     8	 1
    2     6	 1
    2    33	 1
    2    34	 1
    2    35	 1
    2    28	 1
    2    29	 1
    2    36	 1
    2    37	 1
    2    38	 1
    3    15	 1
    3     7	 1
    3    44	 1
    3    13	 1
    3     5	 1
    3    14	 1
    4    15	 1
    4     7	 1
    4    44	 1
    4    12	 1
    5    33	 1
    5    34	 1
    5    35	 1
    5    36	 1
    5    37	 1
    5    38	 1
    5     8	 1
    5    10	 1
    5    32	 1
    6    15	 1
    6    44	 1
    6    13	 1
    6    14	 1
    6     9	 1
    6    30	 1
    6    11	 1
   45     6	 1
    7    17	 1
    7    16	 1
    7    28	 1
    7    29	 1
    7    10	 1
    7    32	 1
    7    31	 1
    8    15	 1
    8    44	 1
    8    12	 1
    8    11	 1
   45     8	 1
    9    32	 1
   10    30	 1
   11    31	 1
   45    31	 1
   11    32	 1
   45    32	 1
   12    28	 1
   12    29	 1
   12    31	 1
   13    28	 1
   13    29	 1
   13    36	 1
   13    37	 1
   13    38	 1
   14    33	 1
   14    34	 1
   14    35	 1
   14    28	 1
   14    29	 1
   15    26	 1
   15    27	 1
   15    19	 1
   15    40	 1
   15    41	 1
   16    44	 1
   16    25	 1
   16    18	 1
   16    39	 1
   17    44	 1
   17    23	 1
   17    20	 1
   18    26	 1
   18    27	 1
   18    24	 1
   46    18	 1
   18    22	 1
   18    21	 1
   18    42	 1
   19    25	 1
   19    39	 1
   19    43	 1
   20    40	 1
   20    41	 1
   20    24	 1
   46    20	 1
   21    24	 1
   46    21	 1
   22    42	 1
   23    40	 1
   23    41	 1
   23    42	 1
   23    43	 1
   25    40	 1
   25    41	 1
   26    39	 1
   27    39	 1
   30    31	 1
   39    40	 1
   39    41	 1
   42    43	 1

[ angles ]
;	ai	  aj	ak funct			c0			  c1			c2			  c3
   15     1     2	5 ;      NG311      CG311      NG311
   15     1     7	5 ;      NG311      CG311     CG2R61
   15     1    44	5 ;      NG311      CG311       HGA1
    2     1     7	5 ;      NG311      CG311     CG2R61
    2     1    44	5 ;      NG311      CG311       HGA1
    7     1    44	5 ;     CG2R61      CG311       HGA1
    3     2     1	5 ;     HGPAM1      NG311      CG311
    3     2     4	5 ;     HGPAM1      NG311      CG301
    1     2     4	5 ;      CG311      NG311      CG301
    2     4    13	5 ;      NG311      CG301      CG331
    2     4     5	5 ;      NG311      CG301      CG321
    2     4    14	5 ;      NG311      CG301      CG331
   13     4     5	5 ;      CG331      CG301      CG321
   13     4    14	5 ;      CG331      CG301      CG331
    5     4    14	5 ;      CG321      CG301      CG331
    4     5     6	5 ;      CG301      CG321     CG2R61
    4     5    28	5 ;      CG301      CG321       HGA2
    4     5    29	5 ;      CG301      CG321       HGA2
    6     5    28	5 ;     CG2R61      CG321       HGA2
    6     5    29	5 ;     CG2R61      CG321       HGA2
   28     5    29	5 ;       HGA2      CG321       HGA2
    7     6     5	5 ;     CG2R61     CG2R61      CG321
    7     6    12	5 ;     CG2R61     CG2R61     CG2R61
    5     6    12	5 ;      CG321     CG2R61     CG2R61
    1     7     8	5 ;      CG311     CG2R61     CG2R61
    1     7     6	5 ;      CG311     CG2R61     CG2R61
    8     7     6	5 ;     CG2R61     CG2R61     CG2R61
    7     8     9	5 ;     CG2R61     CG2R61     CG2R61
    7     8    30	5 ;     CG2R61     CG2R61      HGR61
    9     8    30	5 ;     CG2R61     CG2R61      HGR61
    8     9    10	5 ;     CG2R61     CG2R61     CG2R61
    8     9    31	5 ;     CG2R61     CG2R61      HGR62
   10     9    31	5 ;     CG2R61     CG2R61      HGR62
    9    10    12	5 ;     CG2R61     CG2R61     CG2R61
    9    10    11	5 ;     CG2R61     CG2R61      CLGR1
   12    10    11	5 ;     CG2R61     CG2R61      CLGR1
    6    12    10	5 ;     CG2R61     CG2R61     CG2R61
    6    12    32	5 ;     CG2R61     CG2R61      HGR62
   10    12    32	5 ;     CG2R61     CG2R61      HGR62
    4    13    33	5 ;      CG301      CG331       HGA3
    4    13    34	5 ;      CG301      CG331       HGA3
    4    13    35	5 ;      CG301      CG331       HGA3
   33    13    34	5 ;       HGA3      CG331       HGA3
   33    13    35	5 ;       HGA3      CG331       HGA3
   34    13    35	5 ;       HGA3      CG331       HGA3
    4    14    36	5 ;      CG301      CG331       HGA3
    4    14    37	5 ;      CG301      CG331       HGA3
    4    14    38	5 ;      CG301      CG331       HGA3
   36    14    37	5 ;       HGA3      CG331       HGA3
   36    14    38	5 ;       HGA3      CG331       HGA3
   37    14    38	5 ;       HGA3      CG331       HGA3
   17    15    16	5 ;      CG311      NG311     HGPAM1
   17    15     1	5 ;      CG311      NG311      CG311
   16    15     1	5 ;     HGPAM1      NG311      CG311
   25    17    18	5 ;      CG2O3      CG311      CG321
   25    17    15	5 ;      CG2O3      CG311      NG311
   25    17    39	5 ;      CG2O3      CG311       HGA1
   18    17    15	5 ;      CG321      CG311      NG311
   18    17    39	5 ;      CG321      CG311       HGA1
   15    17    39	5 ;      NG311      CG311       HGA1
   17    18    19	5 ;      CG311      CG321     CG2R51
   17    18    40	5 ;      CG311      CG321       HGA2
   17    18    41	5 ;      CG311      CG321       HGA2
   19    18    40	5 ;     CG2R51      CG321       HGA2
   19    18    41	5 ;     CG2R51      CG321       HGA2
   40    18    41	5 ;       HGA2      CG321       HGA2
   23    19    18	5 ;     CG2R51     CG2R51      CG321
   23    19    20	5 ;     CG2R51     CG2R51     CG2R51
   18    19    20	5 ;      CG321     CG2R51     CG2R51
   19    20    21	5 ;     CG2R51     CG2R51     CG2R51
   19    20    42	5 ;     CG2R51     CG2R51      HGR51
   21    20    42	5 ;     CG2R51     CG2R51      HGR51
   22    21    20	5 ;     SG2R50     CG2R51     CG2R51
   22    21    43	5 ;     SG2R50     CG2R51      HGR52
   20    21    43	5 ;     CG2R51     CG2R51      HGR52
   23    22    21	5 ;     CG2R51     SG2R50     CG2R51
   24    23    22	5 ;      BRGR1     CG2R51     SG2R50
   24    23    19	5 ;      BRGR1     CG2R51     CG2R51
   22    23    19	5 ;     SG2R50     CG2R51     CG2R51
   26    25    27	5 ;      OG2D2      CG2O3      OG2D2
   26    25    17	5 ;      OG2D2      CG2O3      CG311
   27    25    17	5 ;      OG2D2      CG2O3      CG311

[ dihedrals ]
;	ai	  aj	ak	  al funct			  c0			c1			  c2			c3			  c4			c5
    2     1    15    17	 9 ;      NG311      CG311      NG311      CG311
    2     1    15    16	 9 ;      NG311      CG311      NG311     HGPAM1
    7     1    15    17	 9 ;     CG2R61      CG311      NG311      CG311
    7     1    15    16	 9 ;     CG2R61      CG311      NG311     HGPAM1
   44     1    15    17	 9 ;       HGA1      CG311      NG311      CG311
   44     1    15    16	 9 ;       HGA1      CG311      NG311     HGPAM1
   15     1     2     3	 9 ;      NG311      CG311      NG311     HGPAM1
   15     1     2     4	 9 ;      NG311      CG311      NG311      CG301
    7     1     2     3	 9 ;     CG2R61      CG311      NG311     HGPAM1
    7     1     2     4	 9 ;     CG2R61      CG311      NG311      CG301
   44     1     2     3	 9 ;       HGA1      CG311      NG311     HGPAM1
   44     1     2     4	 9 ;       HGA1      CG311      NG311      CG301
   15     1     7     8	 9 ;      NG311      CG311     CG2R61     CG2R61
   15     1     7     6	 9 ;      NG311      CG311     CG2R61     CG2R61
    2     1     7     8	 9 ;      NG311      CG311     CG2R61     CG2R61
    2     1     7     6	 9 ;      NG311      CG311     CG2R61     CG2R61
   44     1     7     8	 9 ;       HGA1      CG311     CG2R61     CG2R61
   44     1     7     6	 9 ;       HGA1      CG311     CG2R61     CG2R61
    3     2     4    13	 9 ;     HGPAM1      NG311      CG301      CG331
    3     2     4     5	 9 ;     HGPAM1      NG311      CG301      CG321
    3     2     4    14	 9 ;     HGPAM1      NG311      CG301      CG331
    1     2     4    13	 9 ;      CG311      NG311      CG301      CG331
    1     2     4     5	 9 ;      CG311      NG311      CG301      CG321
    1     2     4    14	 9 ;      CG311      NG311      CG301      CG331
    2     4    13    33	 9 ;      NG311      CG301      CG331       HGA3
    2     4    13    34	 9 ;      NG311      CG301      CG331       HGA3
    2     4    13    35	 9 ;      NG311      CG301      CG331       HGA3
    5     4    13    33	 9 ;      CG321      CG301      CG331       HGA3
    5     4    13    34	 9 ;      CG321      CG301      CG331       HGA3
    5     4    13    35	 9 ;      CG321      CG301      CG331       HGA3
   14     4    13    33	 9 ;      CG331      CG301      CG331       HGA3
   14     4    13    34	 9 ;      CG331      CG301      CG331       HGA3
   14     4    13    35	 9 ;      CG331      CG301      CG331       HGA3
    2     4     5     6	 9 ;      NG311      CG301      CG321     CG2R61
    2     4     5    28	 9 ;      NG311      CG301      CG321       HGA2
    2     4     5    29	 9 ;      NG311      CG301      CG321       HGA2
   13     4     5     6	 9 ;      CG331      CG301      CG321     CG2R61
   13     4     5    28	 9 ;      CG331      CG301      CG321       HGA2
   13     4     5    29	 9 ;      CG331      CG301      CG321       HGA2
   14     4     5     6	 9 ;      CG331      CG301      CG321     CG2R61
   14     4     5    28	 9 ;      CG331      CG301      CG321       HGA2
   14     4     5    29	 9 ;      CG331      CG301      CG321       HGA2
    2     4    14    36	 9 ;      NG311      CG301      CG331       HGA3
    2     4    14    37	 9 ;      NG311      CG301      CG331       HGA3
    2     4    14    38	 9 ;      NG311      CG301      CG331       HGA3
   13     4    14    36	 9 ;      CG331      CG301      CG331       HGA3
   13     4    14    37	 9 ;      CG331      CG301      CG331       HGA3
   13     4    14    38	 9 ;      CG331      CG301      CG331       HGA3
    5     4    14    36	 9 ;      CG321      CG301      CG331       HGA3
    5     4    14    37	 9 ;      CG321      CG301      CG331       HGA3
    5     4    14    38	 9 ;      CG321      CG301      CG331       HGA3
    4     5     6     7	 9 ;      CG301      CG321     CG2R61     CG2R61
    4     5     6    12	 9 ;      CG301      CG321     CG2R61     CG2R61
   28     5     6     7	 9 ;       HGA2      CG321     CG2R61     CG2R61
   28     5     6    12	 9 ;       HGA2      CG321     CG2R61     CG2R61
   29     5     6     7	 9 ;       HGA2      CG321     CG2R61     CG2R61
   29     5     6    12	 9 ;       HGA2      CG321     CG2R61     CG2R61
    5     6     7     1	 9 ;      CG321     CG2R61     CG2R61      CG311
    5     6     7     8	 9 ;      CG321     CG2R61     CG2R61     CG2R61
   12     6     7     1	 9 ;     CG2R61     CG2R61     CG2R61      CG311
   12     6     7     8	 9 ;     CG2R61     CG2R61     CG2R61     CG2R61
    7     6    12    10	 9 ;     CG2R61     CG2R61     CG2R61     CG2R61
    7     6    12    32	 9 ;     CG2R61     CG2R61     CG2R61      HGR62
    5     6    12    10	 9 ;      CG321     CG2R61     CG2R61     CG2R61
    5     6    12    32	 9 ;      CG321     CG2R61     CG2R61      HGR62
    1     7     8     9	 9 ;      CG311     CG2R61     CG2R61     CG2R61
    1     7     8    30	 9 ;      CG311     CG2R61     CG2R61      HGR61
    6     7     8     9	 9 ;     CG2R61     CG2R61     CG2R61     CG2R61
    6     7     8    30	 9 ;     CG2R61     CG2R61     CG2R61      HGR61
    7     8     9    10	 9 ;     CG2R61     CG2R61     CG2R61     CG2R61
    7     8     9    31	 9 ;     CG2R61     CG2R61     CG2R61      HGR62
   30     8     9    10	 9 ;      HGR61     CG2R61     CG2R61     CG2R61
   30     8     9    31	 9 ;      HGR61     CG2R61     CG2R61      HGR62
    8     9    10    12	 9 ;     CG2R61     CG2R61     CG2R61     CG2R61
    8     9    10    11	 9 ;     CG2R61     CG2R61     CG2R61      CLGR1
   31     9    10    12	 9 ;      HGR62     CG2R61     CG2R61     CG2R61
   31     9    10    11	 9 ;      HGR62     CG2R61     CG2R61      CLGR1
    9    10    12     6	 9 ;     CG2R61     CG2R61     CG2R61     CG2R61
    9    10    12    32	 9 ;     CG2R61     CG2R61     CG2R61      HGR62
   11    10    12     6	 9 ;      CLGR1     CG2R61     CG2R61     CG2R61
   11    10    12    32	 9 ;      CLGR1     CG2R61     CG2R61      HGR62
   16    15    17    25	 9 ;     HGPAM1      NG311      CG311      CG2O3
   16    15    17    18	 9 ;     HGPAM1      NG311      CG311      CG321
   16    15    17    39	 9 ;     HGPAM1      NG311      CG311       HGA1
    1    15    17    25	 9 ;      CG311      NG311      CG311      CG2O3
    1    15    17    18	 9 ;      CG311      NG311      CG311      CG321
    1    15    17    39	 9 ;      CG311      NG311      CG311       HGA1
   18    17    25    26	 9 ;      CG321      CG311      CG2O3      OG2D2
   18    17    25    27	 9 ;      CG321      CG311      CG2O3      OG2D2
   15    17    25    26	 9 ;      NG311      CG311      CG2O3      OG2D2
   15    17    25    27	 9 ;      NG311      CG311      CG2O3      OG2D2
   39    17    25    26	 9 ;       HGA1      CG311      CG2O3      OG2D2
   39    17    25    27	 9 ;       HGA1      CG311      CG2O3      OG2D2
   25    17    18    19	 9 ;      CG2O3      CG311      CG321     CG2R51
   25    17    18    40	 9 ;      CG2O3      CG311      CG321       HGA2
   25    17    18    41	 9 ;      CG2O3      CG311      CG321       HGA2
   15    17    18    19	 9 ;      NG311      CG311      CG321     CG2R51
   15    17    18    40	 9 ;      NG311      CG311      CG321       HGA2
   15    17    18    41	 9 ;      NG311      CG311      CG321       HGA2
   39    17    18    19	 9 ;       HGA1      CG311      CG321     CG2R51
   39    17    18    40	 9 ;       HGA1      CG311      CG321       HGA2
   39    17    18    41	 9 ;       HGA1      CG311      CG321       HGA2
   17    18    19    23	 9 ;      CG311      CG321     CG2R51     CG2R51
   17    18    19    20	 9 ;      CG311      CG321     CG2R51     CG2R51
   40    18    19    23	 9 ;       HGA2      CG321     CG2R51     CG2R51
   40    18    19    20	 9 ;       HGA2      CG321     CG2R51     CG2R51
   41    18    19    23	 9 ;       HGA2      CG321     CG2R51     CG2R51
   41    18    19    20	 9 ;       HGA2      CG321     CG2R51     CG2R51
   18    19    23    24	 9 ;      CG321     CG2R51     CG2R51      BRGR1
   18    19    23    22	 9 ;      CG321     CG2R51     CG2R51     SG2R50
   20    19    23    24	 9 ;     CG2R51     CG2R51     CG2R51      BRGR1
   20    19    23    22	 9 ;     CG2R51     CG2R51     CG2R51     SG2R50
   23    19    20    21	 9 ;     CG2R51     CG2R51     CG2R51     CG2R51
   23    19    20    42	 9 ;     CG2R51     CG2R51     CG2R51      HGR51
   18    19    20    21	 9 ;      CG321     CG2R51     CG2R51     CG2R51
   18    19    20    42	 9 ;      CG321     CG2R51     CG2R51      HGR51
   19    20    21    22	 9 ;     CG2R51     CG2R51     CG2R51     SG2R50
   19    20    21    43	 9 ;     CG2R51     CG2R51     CG2R51      HGR52
   42    20    21    22	 9 ;      HGR51     CG2R51     CG2R51     SG2R50
   42    20    21    43	 9 ;      HGR51     CG2R51     CG2R51      HGR52
   20    21    22    23	 9 ;     CG2R51     CG2R51     SG2R50     CG2R51
   43    21    22    23	 9 ;      HGR52     CG2R51     SG2R50     CG2R51
   21    22    23    24	 9 ;     CG2R51     SG2R50     CG2R51      BRGR1
   21    22    23    19	 9 ;     CG2R51     SG2R50     CG2R51     CG2R51

[ dihedrals ]
;	ai	  aj	ak	  al funct			  c0			c1			  c2			c3
   25    26    27    17	 2

[ virtual_sites2 ]
; Site   from				funct a
   45    11    10     2   -0.164
   46    24    23     2   -0.189

[ exclusions ]
;	ai	  aj
   11    45
   24    46
   45    10
   46    23
   45     9
   45    12
   46    22
   46    19
   45     6
   45     8
   45    31
   45    32
   46    18
   46    20
   46    21

