Great Red Oystrich Makes All Chemists Sane
   46
    1LIG     C1    1  -1.131   0.212  -1.667
    1LIG     N1    2  -1.066   0.131  -1.589
    1LIG     HN    3  -0.974   0.096  -1.615
    1LIG     C2    4  -1.126   0.091  -1.461
    1LIG     C3    5  -1.200   0.210  -1.395
    1LIG     C4    6  -1.300   0.268  -1.492
    1LIG     C5    7  -1.265   0.268  -1.628
    1LIG     C6    8  -1.356   0.313  -1.724
    1LIG     C7    9  -1.481   0.361  -1.684
    1LIG     C8   10  -1.513   0.364  -1.548
    1LIG     CL   11  -1.669   0.422  -1.499
    1LIG     C9   12  -1.423   0.319  -1.452
    1LIG    C10   13  -1.011   0.047  -1.370
    1LIG    C11   14  -1.218  -0.029  -1.485
    1LIG     N2   15  -1.075   0.254  -1.784
    1LIG      H   16  -1.090   0.201  -1.869
    1LIG     CA   17  -0.976   0.361  -1.795
    1LIG    C12   18  -1.048   0.493  -1.826
    1LIG    C13   19  -1.039   0.593  -1.712
    1LIG    C14   20  -1.147   0.615  -1.620
    1LIG    C15   21  -1.118   0.711  -1.525
    1LIG      S   22  -0.961   0.775  -1.545
    1LIG    C16   23  -0.933   0.678  -1.682
    1LIG     BR   24  -0.772   0.690  -1.778
    1LIG    C17   25  -0.875   0.353  -1.913
    1LIG      O   26  -0.894   0.435  -2.007
    1LIG    OXT   27  -0.790   0.258  -1.906
    1LIG    HC2   28  -1.252   0.175  -1.306
    1LIG    HC3   29  -1.127   0.287  -1.367
    1LIG     HC   30  -1.330   0.310  -1.828
    1LIG    HC1   31  -1.551   0.396  -1.758
    1LIG    HC4   32  -1.449   0.323  -1.347
    1LIG    HC5   33  -0.944   0.132  -1.352
    1LIG    HC6   34  -0.955  -0.033  -1.418
    1LIG    HC7   35  -1.051   0.012  -1.275
    1LIG    HC8   36  -1.301   0.001  -1.549
    1LIG    HC9   37  -1.162  -0.109  -1.533
    1LIG   HC10   38  -1.258  -0.064  -1.390
    1LIG   HC11   39  -0.921   0.370  -1.701
    1LIG   HC12   40  -1.153   0.472  -1.845
    1LIG   HC13   41  -1.003   0.538  -1.915
    1LIG   HC14   42  -1.242   0.563  -1.625
    1LIG   HC15   43  -1.186   0.741  -1.446
    1LIG    H19   44  -1.178   0.128  -1.717
    1LIG    LP1   45  -1.816   0.477  -1.452
    1LIG    LP2   46  -0.611   0.703  -1.875
   0.00000   0.00000   0.00000
