GRowing Old MAkes el Chrono Sweat
   66
    1LIG      S    1  -2.209   0.538  -1.545
    1LIG     O1    2  -2.169   0.625  -1.437
    1LIG     O2    3  -2.343   0.490  -1.564
    1LIG     N1    4  -2.095   0.414  -1.552
    1LIG     C1    5  -1.962   0.462  -1.603
    1LIG     C2    6  -1.879   0.525  -1.489
    1LIG     C3    7  -1.735   0.565  -1.525
    1LIG     N2    8  -1.661   0.449  -1.590
    1LIG     C4    9  -1.737   0.383  -1.702
    1LIG     C5   10  -1.881   0.348  -1.666
    1LIG     C6   11  -1.717   0.687  -1.615
    1LIG     C7   12  -2.005   0.573  -1.707
    1LIG     N3   13  -2.150   0.606  -1.689
    1LIG     C8   14  -2.231   0.580  -1.809
    1LIG     H1   15  -1.579   0.492  -1.635
    1LIG     C9   16  -1.593   0.355  -1.490
    1LIG    C10   17  -1.449   0.325  -1.529
    1LIG    C11   18  -1.367   0.239  -1.451
    1LIG    C12   19  -1.242   0.196  -1.502
    1LIG    C13   20  -1.203   0.242  -1.627
    1LIG    C14   21  -1.135   0.111  -1.461
    1LIG     N4   22  -1.085   0.178  -1.655
    1LIG    C15   23  -1.276   0.334  -1.702
    1LIG     N5   24  -1.042   0.098  -1.556
    1LIG     H2   25  -1.029   0.183  -1.740
    1LIG     HN   26  -0.958   0.041  -1.554
    1LIG    C16   27  -1.399   0.375  -1.651
    1LIG    C17   28  -1.114   0.038  -1.332
    1LIG    C18   29  -1.150  -0.109  -1.342
    1LIG    C19   30  -2.135   0.282  -1.516
    1LIG    C20   31  -2.095   0.228  -1.393
    1LIG    C21   32  -2.142   0.103  -1.355
    1LIG      F   33  -2.103   0.052  -1.237
    1LIG    C22   34  -2.228   0.030  -1.436
    1LIG    C23   35  -2.270   0.083  -1.557
    1LIG    C24   36  -2.223   0.209  -1.597
    1LIG    HC2   37  -1.931   0.614  -1.455
    1LIG    HC3   38  -1.875   0.454  -1.406
    1LIG     HC   39  -1.684   0.587  -1.431
    1LIG    HC4   40  -1.685   0.291  -1.729
    1LIG    HC5   41  -1.737   0.449  -1.788
    1LIG    HC6   42  -1.932   0.316  -1.757
    1LIG    HC7   43  -1.880   0.264  -1.596
    1LIG    HC1   44  -1.621   0.735  -1.593
    1LIG    HC8   45  -1.718   0.656  -1.720
    1LIG    HC9   46  -1.797   0.758  -1.597
    1LIG   HC10   47  -1.945   0.663  -1.691
    1LIG   HC11   48  -1.989   0.536  -1.808
    1LIG   HC12   49  -2.335   0.606  -1.789
    1LIG   HC13   50  -2.225   0.474  -1.835
    1LIG   HC14   51  -2.194   0.639  -1.893
    1LIG   HC15   52  -1.648   0.261  -1.487
    1LIG   HC16   53  -1.594   0.400  -1.391
    1LIG   HC17   54  -1.399   0.207  -1.353
    1LIG   HC18   55  -1.239   0.371  -1.797
    1LIG   HC19   56  -1.458   0.447  -1.706
    1LIG   HC20   57  -1.176   0.084  -1.255
    1LIG   HC21   58  -1.009   0.047  -1.303
    1LIG   HC22   59  -1.133  -0.158  -1.246
    1LIG   HC23   60  -1.255  -0.119  -1.370
    1LIG   HC24   61  -1.088  -0.157  -1.419
    1LIG   HC25   62  -2.029   0.284  -1.329
    1LIG   HC26   63  -2.263  -0.068  -1.405
    1LIG   HC27   64  -2.338   0.028  -1.620
    1LIG   HC28   65  -2.255   0.251  -1.692
    1LIG    H33   66  -1.149   0.324  -1.580
   0.00000   0.00000   0.00000
