; Created by cgenff_charmm2gmx.py

[ moleculetype ]
; Name			   nrexcl
LIG				 3

[ atoms ]
;	 nr		  type	resnr residue  atom   cgnr	   charge		mass  typeB    chargeB		massB
; residue	 1 LIG rtp LIG q	qsum
     1      SG3O2      1    LIG      S      1      0.301     32.060   ;
     2      OG2P1      1    LIG     O1      2     -0.242     15.999   ;
     3      OG2P1      1    LIG     O2      3     -0.242     15.999   ;
     4     NG3C51      1    LIG     N1      4     -0.405     14.007   ;
     5     CG3C50      1    LIG     C1      5      0.255     12.011   ;
     6      CG321      1    LIG     C2      6     -0.124     12.011   ;
     7      CG314      1    LIG     C3      7      0.222     12.011   ;
     8      NG3P1      1    LIG     N2      8     -0.552     14.007   ;
     9      CG324      1    LIG     C4      9      0.127     12.011   ;
    10      CG321      1    LIG     C5     10     -0.123     12.011   ;
    11      CG331      1    LIG     C6     11     -0.213     12.011   ;
    12     CG3C52      1    LIG     C7     12     -0.072     12.011   ;
    13     NG3C51      1    LIG     N3     13     -0.309     14.007   ;
    14      CG331      1    LIG     C8     14     -0.027     12.011   ;
    15       HGP2      1    LIG     H1     15      0.333      1.008   ;
    16      CG324      1    LIG     C9     16      0.197     12.011   ;
    17     CG2DC1      1    LIG    C10     17      0.035     12.011   ;
    18     CG2DC1      1    LIG    C11     18      0.030     12.011   ;
    19     CG2R51      1    LIG    C12     19     -0.386     12.011   ;
    20     CG3RC1      1    LIG    C13     20     -0.125     12.011   ;
    21     CG2R51      1    LIG    C14     21      0.152     12.011   ;
    22     NG3C51      1    LIG     N4     22     -0.418     14.007   ;
    23     CG2DC2      1    LIG    C15     23     -0.053     12.011   ;
    24     NG3C51      1    LIG     N5     24     -0.412     14.007   ;
    25       HGP1      1    LIG     H2     25      0.288      1.008   ;
    26       HGP1      1    LIG     HN     26      0.308      1.008   ;
    27     CG2DC2      1    LIG    C16     27     -0.199     12.011   ;
    28      CG321      1    LIG    C17     28      0.023     12.011   ;
    29      CG331      1    LIG    C18     29     -0.253     12.011   ;
    30     CG2R61      1    LIG    C19     30      0.378     12.011   ;
    31     CG2R61      1    LIG    C20     31     -0.169     12.011   ;
    32     CG2R66      1    LIG    C21     32      0.105     12.011   ;
    33       FGR1      1    LIG      F     33     -0.211     18.998   ;
    34     CG2R61      1    LIG    C22     34     -0.107     12.011   ;
    35     CG2R61      1    LIG    C23     35     -0.149     12.011   ;
    36     CG2R61      1    LIG    C24     36     -0.107     12.011   ;
    37       HGA2      1    LIG    HC2     37      0.090      1.008   ;
    38       HGA2      1    LIG    HC3     38      0.090      1.008   ;
    39       HGA1      1    LIG     HC     39      0.090      1.008   ;
    40       HGA2      1    LIG    HC4     40      0.090      1.008   ;
    41       HGA2      1    LIG    HC5     41      0.090      1.008   ;
    42       HGA2      1    LIG    HC6     42      0.090      1.008   ;
    43       HGA2      1    LIG    HC7     43      0.090      1.008   ;
    44       HGA3      1    LIG    HC1     44      0.090      1.008   ;
    45       HGA3      1    LIG    HC8     45      0.090      1.008   ;
    46       HGA3      1    LIG    HC9     46      0.090      1.008   ;
    47       HGA2      1    LIG   HC10     47      0.090      1.008   ;
    48       HGA2      1    LIG   HC11     48      0.090      1.008   ;
    49       HGA3      1    LIG   HC12     49      0.090      1.008   ;
    50       HGA3      1    LIG   HC13     50      0.090      1.008   ;
    51       HGA3      1    LIG   HC14     51      0.090      1.008   ;
    52       HGA2      1    LIG   HC15     52      0.090      1.008   ;
    53       HGA2      1    LIG   HC16     53      0.090      1.008   ;
    54       HGA4      1    LIG   HC17     54      0.191      1.008   ;
    55       HGA4      1    LIG   HC18     55      0.147      1.008   ;
    56       HGA4      1    LIG   HC19     56      0.150      1.008   ;
    57       HGA2      1    LIG   HC20     57      0.090      1.008   ;
    58       HGA2      1    LIG   HC21     58      0.090      1.008   ;
    59       HGA3      1    LIG   HC22     59      0.090      1.008   ;
    60       HGA3      1    LIG   HC23     60      0.090      1.008   ;
    61       HGA3      1    LIG   HC24     61      0.090      1.008   ;
    62      HGR62      1    LIG   HC25     62      0.175      1.008   ;
    63      HGR62      1    LIG   HC26     63      0.179      1.008   ;
    64      HGR61      1    LIG   HC27     64      0.116      1.008   ;
    65      HGR61      1    LIG   HC28     65      0.116      1.008   ;
    66       HGA1      1    LIG    H33     66      0.090      1.008   ;

[ bonds ]
;	ai	  aj funct			  c0			c1			  c2			c3
    1    13	 1 ;       SG3O2     NG3C51
    1     4	 1 ;       SG3O2     NG3C51
    1     2	 1 ;       SG3O2      OG2P1
    1     3	 1 ;       SG3O2      OG2P1
    4     5	 1 ;      NG3C51     CG3C50
    4    30	 1 ;      NG3C51     CG2R61
    5    10	 1 ;      CG3C50      CG321
    5    12	 1 ;      CG3C50     CG3C52
    5     6	 1 ;      CG3C50      CG321
    6     7	 1 ;       CG321      CG314
    6    37	 1 ;       CG321       HGA2
    6    38	 1 ;       CG321       HGA2
    7    11	 1 ;       CG314      CG331
    7     8	 1 ;       CG314      NG3P1
    7    39	 1 ;       CG314       HGA1
    8    15	 1 ;       NG3P1       HGP2
    8     9	 1 ;       NG3P1      CG324
    8    16	 1 ;       NG3P1      CG324
    9    10	 1 ;       CG324      CG321
    9    40	 1 ;       CG324       HGA2
    9    41	 1 ;       CG324       HGA2
   10    42	 1 ;       CG321       HGA2
   10    43	 1 ;       CG321       HGA2
   11    44	 1 ;       CG331       HGA3
   11    45	 1 ;       CG331       HGA3
   11    46	 1 ;       CG331       HGA3
   12    13	 1 ;      CG3C52     NG3C51
   12    47	 1 ;      CG3C52       HGA2
   12    48	 1 ;      CG3C52       HGA2
   13    14	 1 ;      NG3C51      CG331
   14    49	 1 ;       CG331       HGA3
   14    50	 1 ;       CG331       HGA3
   14    51	 1 ;       CG331       HGA3
   16    17	 1 ;       CG324     CG2DC1
   16    52	 1 ;       CG324       HGA2
   16    53	 1 ;       CG324       HGA2
   17    27	 1 ;      CG2DC1     CG2DC2
   17    18	 1 ;      CG2DC1     CG2DC1
   18    19	 1 ;      CG2DC1     CG2R51
   18    54	 1 ;      CG2DC1       HGA4
   19    20	 1 ;      CG2R51     CG3RC1
   19    21	 1 ;      CG2R51     CG2R51
   20    22	 1 ;      CG3RC1     NG3C51
   20    23	 1 ;      CG3RC1     CG2DC2
   20    66	 1 ;      CG3RC1       HGA1
   21    24	 1 ;      CG2R51     NG3C51
   21    28	 1 ;      CG2R51      CG321
   22    25	 1 ;      NG3C51       HGP1
   22    24	 1 ;      NG3C51     NG3C51
   23    27	 1 ;      CG2DC2     CG2DC2
   23    55	 1 ;      CG2DC2       HGA4
   24    26	 1 ;      NG3C51       HGP1
   27    56	 1 ;      CG2DC2       HGA4
   28    29	 1 ;       CG321      CG331
   28    57	 1 ;       CG321       HGA2
   28    58	 1 ;       CG321       HGA2
   29    59	 1 ;       CG331       HGA3
   29    60	 1 ;       CG331       HGA3
   29    61	 1 ;       CG331       HGA3
   30    36	 1 ;      CG2R61     CG2R61
   30    31	 1 ;      CG2R61     CG2R61
   31    32	 1 ;      CG2R61     CG2R66
   31    62	 1 ;      CG2R61      HGR62
   32    34	 1 ;      CG2R66     CG2R61
   32    33	 1 ;      CG2R66       FGR1
   34    35	 1 ;      CG2R61     CG2R61
   34    63	 1 ;      CG2R61      HGR62
   35    36	 1 ;      CG2R61     CG2R61
   35    64	 1 ;      CG2R61      HGR61
   36    65	 1 ;      CG2R61      HGR61

[ pairs ]
;	ai	  aj funct			  c0			c1			  c2			c3
    1    10	 1
    1     6	 1
    1    36	 1
    1    31	 1
    1    47	 1
    1    48	 1
    1    49	 1
    1    50	 1
    1    51	 1
    2    12	 1
    2    14	 1
    2     5	 1
    2    30	 1
    3    12	 1
    3    14	 1
    3     5	 1
    3    30	 1
    4    14	 1
    4     9	 1
    4    42	 1
    4    43	 1
    4    47	 1
    4    48	 1
    4     7	 1
    4    37	 1
    4    38	 1
    4    35	 1
    4    65	 1
    4    32	 1
    4    62	 1
    5    36	 1
    5    31	 1
    5    11	 1
    5     8	 1
    5    39	 1
    5    40	 1
    5    41	 1
    5    14	 1
    6    30	 1
    6     9	 1
    6    42	 1
    6    43	 1
    6    13	 1
    6    47	 1
    6    48	 1
    6    44	 1
    6    45	 1
    6    46	 1
    6    15	 1
    6    16	 1
    7    10	 1
    7    12	 1
    7    40	 1
    7    41	 1
    7    17	 1
    7    52	 1
    7    53	 1
    8    37	 1
    8    38	 1
    8    44	 1
    8    45	 1
    8    46	 1
    8    42	 1
    8    43	 1
    8    27	 1
    8    18	 1
    9    12	 1
    9    11	 1
    9    39	 1
    9    17	 1
    9    52	 1
    9    53	 1
   10    30	 1
   10    13	 1
   10    47	 1
   10    48	 1
   10    37	 1
   10    38	 1
   10    15	 1
   10    16	 1
   11    37	 1
   11    38	 1
   11    15	 1
   11    16	 1
   12    30	 1
   12    42	 1
   12    43	 1
   12    37	 1
   12    38	 1
   12    49	 1
   12    50	 1
   12    51	 1
   13    30	 1
   14    47	 1
   14    48	 1
   15    39	 1
   15    40	 1
   15    41	 1
   15    17	 1
   15    52	 1
   15    53	 1
   16    39	 1
   16    40	 1
   16    41	 1
   16    23	 1
   16    56	 1
   16    19	 1
   16    54	 1
   17    20	 1
   17    21	 1
   17    55	 1
   18    52	 1
   18    53	 1
   18    23	 1
   18    56	 1
   18    22	 1
   18    66	 1
   18    24	 1
   18    28	 1
   19    27	 1
   19    25	 1
   19    55	 1
   19    26	 1
   19    29	 1
   19    57	 1
   19    58	 1
   20    54	 1
   20    28	 1
   20    26	 1
   20    56	 1
   21    54	 1
   21    23	 1
   21    66	 1
   21    25	 1
   21    59	 1
   21    60	 1
   21    61	 1
   22    27	 1
   22    55	 1
   22    28	 1
   23    25	 1
   23    24	 1
   24    66	 1
   24    29	 1
   24    57	 1
   24    58	 1
   25    66	 1
   25    26	 1
   26    28	 1
   27    52	 1
   27    53	 1
   27    54	 1
   27    66	 1
   30    34	 1
   30    33	 1
   30    64	 1
   31    35	 1
   31    65	 1
   31    63	 1
   32    36	 1
   32    64	 1
   33    62	 1
   33    35	 1
   33    63	 1
   34    62	 1
   34    65	 1
   36    62	 1
   36    63	 1
   37    39	 1
   38    39	 1
   39    44	 1
   39    45	 1
   39    46	 1
   40    42	 1
   40    43	 1
   41    42	 1
   41    43	 1
   55    66	 1
   55    56	 1
   57    59	 1
   57    60	 1
   57    61	 1
   58    59	 1
   58    60	 1
   58    61	 1
   63    64	 1
   64    65	 1

[ angles ]
;	ai	  aj	ak funct			c0			  c1			c2			  c3
   13     1     4	5 ;     NG3C51      SG3O2     NG3C51
   13     1     2	5 ;     NG3C51      SG3O2      OG2P1
   13     1     3	5 ;     NG3C51      SG3O2      OG2P1
    4     1     2	5 ;     NG3C51      SG3O2      OG2P1
    4     1     3	5 ;     NG3C51      SG3O2      OG2P1
    2     1     3	5 ;      OG2P1      SG3O2      OG2P1
    5     4     1	5 ;     CG3C50     NG3C51      SG3O2
    5     4    30	5 ;     CG3C50     NG3C51     CG2R61
    1     4    30	5 ;      SG3O2     NG3C51     CG2R61
   10     5    12	5 ;      CG321     CG3C50     CG3C52
   10     5     6	5 ;      CG321     CG3C50      CG321
   10     5     4	5 ;      CG321     CG3C50     NG3C51
   12     5     6	5 ;     CG3C52     CG3C50      CG321
   12     5     4	5 ;     CG3C52     CG3C50     NG3C51
    6     5     4	5 ;      CG321     CG3C50     NG3C51
    7     6     5	5 ;      CG314      CG321     CG3C50
    7     6    37	5 ;      CG314      CG321       HGA2
    7     6    38	5 ;      CG314      CG321       HGA2
    5     6    37	5 ;     CG3C50      CG321       HGA2
    5     6    38	5 ;     CG3C50      CG321       HGA2
   37     6    38	5 ;       HGA2      CG321       HGA2
   11     7     8	5 ;      CG331      CG314      NG3P1
   11     7     6	5 ;      CG331      CG314      CG321
   11     7    39	5 ;      CG331      CG314       HGA1
    8     7     6	5 ;      NG3P1      CG314      CG321
    8     7    39	5 ;      NG3P1      CG314       HGA1
    6     7    39	5 ;      CG321      CG314       HGA1
   15     8     9	5 ;       HGP2      NG3P1      CG324
   15     8    16	5 ;       HGP2      NG3P1      CG324
   15     8     7	5 ;       HGP2      NG3P1      CG314
    9     8    16	5 ;      CG324      NG3P1      CG324
    9     8     7	5 ;      CG324      NG3P1      CG314
   16     8     7	5 ;      CG324      NG3P1      CG314
    8     9    10	5 ;      NG3P1      CG324      CG321
    8     9    40	5 ;      NG3P1      CG324       HGA2
    8     9    41	5 ;      NG3P1      CG324       HGA2
   10     9    40	5 ;      CG321      CG324       HGA2
   10     9    41	5 ;      CG321      CG324       HGA2
   40     9    41	5 ;       HGA2      CG324       HGA2
    9    10     5	5 ;      CG324      CG321     CG3C50
    9    10    42	5 ;      CG324      CG321       HGA2
    9    10    43	5 ;      CG324      CG321       HGA2
    5    10    42	5 ;     CG3C50      CG321       HGA2
    5    10    43	5 ;     CG3C50      CG321       HGA2
   42    10    43	5 ;       HGA2      CG321       HGA2
    7    11    44	5 ;      CG314      CG331       HGA3
    7    11    45	5 ;      CG314      CG331       HGA3
    7    11    46	5 ;      CG314      CG331       HGA3
   44    11    45	5 ;       HGA3      CG331       HGA3
   44    11    46	5 ;       HGA3      CG331       HGA3
   45    11    46	5 ;       HGA3      CG331       HGA3
    5    12    13	5 ;     CG3C50     CG3C52     NG3C51
    5    12    47	5 ;     CG3C50     CG3C52       HGA2
    5    12    48	5 ;     CG3C50     CG3C52       HGA2
   13    12    47	5 ;     NG3C51     CG3C52       HGA2
   13    12    48	5 ;     NG3C51     CG3C52       HGA2
   47    12    48	5 ;       HGA2     CG3C52       HGA2
   12    13    14	5 ;     CG3C52     NG3C51      CG331
   12    13     1	5 ;     CG3C52     NG3C51      SG3O2
   14    13     1	5 ;      CG331     NG3C51      SG3O2
   13    14    49	5 ;     NG3C51      CG331       HGA3
   13    14    50	5 ;     NG3C51      CG331       HGA3
   13    14    51	5 ;     NG3C51      CG331       HGA3
   49    14    50	5 ;       HGA3      CG331       HGA3
   49    14    51	5 ;       HGA3      CG331       HGA3
   50    14    51	5 ;       HGA3      CG331       HGA3
   17    16     8	5 ;     CG2DC1      CG324      NG3P1
   17    16    52	5 ;     CG2DC1      CG324       HGA2
   17    16    53	5 ;     CG2DC1      CG324       HGA2
    8    16    52	5 ;      NG3P1      CG324       HGA2
    8    16    53	5 ;      NG3P1      CG324       HGA2
   52    16    53	5 ;       HGA2      CG324       HGA2
   27    17    18	5 ;     CG2DC2     CG2DC1     CG2DC1
   27    17    16	5 ;     CG2DC2     CG2DC1      CG324
   18    17    16	5 ;     CG2DC1     CG2DC1      CG324
   19    18    17	5 ;     CG2R51     CG2DC1     CG2DC1
   19    18    54	5 ;     CG2R51     CG2DC1       HGA4
   17    18    54	5 ;     CG2DC1     CG2DC1       HGA4
   20    19    21	5 ;     CG3RC1     CG2R51     CG2R51
   20    19    18	5 ;     CG3RC1     CG2R51     CG2DC1
   21    19    18	5 ;     CG2R51     CG2R51     CG2DC1
   22    20    23	5 ;     NG3C51     CG3RC1     CG2DC2
   22    20    19	5 ;     NG3C51     CG3RC1     CG2R51
   22    20    66	5 ;     NG3C51     CG3RC1       HGA1
   23    20    19	5 ;     CG2DC2     CG3RC1     CG2R51
   23    20    66	5 ;     CG2DC2     CG3RC1       HGA1
   19    20    66	5 ;     CG2R51     CG3RC1       HGA1
   24    21    19	5 ;     NG3C51     CG2R51     CG2R51
   24    21    28	5 ;     NG3C51     CG2R51      CG321
   19    21    28	5 ;     CG2R51     CG2R51      CG321
   25    22    24	5 ;       HGP1     NG3C51     NG3C51
   25    22    20	5 ;       HGP1     NG3C51     CG3RC1
   24    22    20	5 ;     NG3C51     NG3C51     CG3RC1
   20    23    27	5 ;     CG3RC1     CG2DC2     CG2DC2
   20    23    55	5 ;     CG3RC1     CG2DC2       HGA4
   27    23    55	5 ;     CG2DC2     CG2DC2       HGA4
   26    24    22	5 ;       HGP1     NG3C51     NG3C51
   26    24    21	5 ;       HGP1     NG3C51     CG2R51
   22    24    21	5 ;     NG3C51     NG3C51     CG2R51
   23    27    17	5 ;     CG2DC2     CG2DC2     CG2DC1
   23    27    56	5 ;     CG2DC2     CG2DC2       HGA4
   17    27    56	5 ;     CG2DC1     CG2DC2       HGA4
   21    28    29	5 ;     CG2R51      CG321      CG331
   21    28    57	5 ;     CG2R51      CG321       HGA2
   21    28    58	5 ;     CG2R51      CG321       HGA2
   29    28    57	5 ;      CG331      CG321       HGA2
   29    28    58	5 ;      CG331      CG321       HGA2
   57    28    58	5 ;       HGA2      CG321       HGA2
   28    29    59	5 ;      CG321      CG331       HGA3
   28    29    60	5 ;      CG321      CG331       HGA3
   28    29    61	5 ;      CG321      CG331       HGA3
   59    29    60	5 ;       HGA3      CG331       HGA3
   59    29    61	5 ;       HGA3      CG331       HGA3
   60    29    61	5 ;       HGA3      CG331       HGA3
    4    30    36	5 ;     NG3C51     CG2R61     CG2R61
    4    30    31	5 ;     NG3C51     CG2R61     CG2R61
   36    30    31	5 ;     CG2R61     CG2R61     CG2R61
   30    31    32	5 ;     CG2R61     CG2R61     CG2R66
   30    31    62	5 ;     CG2R61     CG2R61      HGR62
   32    31    62	5 ;     CG2R66     CG2R61      HGR62
   31    32    34	5 ;     CG2R61     CG2R66     CG2R61
   31    32    33	5 ;     CG2R61     CG2R66       FGR1
   34    32    33	5 ;     CG2R61     CG2R66       FGR1
   35    34    32	5 ;     CG2R61     CG2R61     CG2R66
   35    34    63	5 ;     CG2R61     CG2R61      HGR62
   32    34    63	5 ;     CG2R66     CG2R61      HGR62
   36    35    34	5 ;     CG2R61     CG2R61     CG2R61
   36    35    64	5 ;     CG2R61     CG2R61      HGR61
   34    35    64	5 ;     CG2R61     CG2R61      HGR61
   30    36    35	5 ;     CG2R61     CG2R61     CG2R61
   30    36    65	5 ;     CG2R61     CG2R61      HGR61
   35    36    65	5 ;     CG2R61     CG2R61      HGR61

[ dihedrals ]
;	ai	  aj	ak	  al funct			  c0			c1			  c2			c3			  c4			c5
    4     1    13    12	 9 ;     NG3C51      SG3O2     NG3C51     CG3C52
    4     1    13    14	 9 ;     NG3C51      SG3O2     NG3C51      CG331
    2     1    13    12	 9 ;      OG2P1      SG3O2     NG3C51     CG3C52
    2     1    13    14	 9 ;      OG2P1      SG3O2     NG3C51      CG331
    3     1    13    12	 9 ;      OG2P1      SG3O2     NG3C51     CG3C52
    3     1    13    14	 9 ;      OG2P1      SG3O2     NG3C51      CG331
   13     1     4     5	 9 ;     NG3C51      SG3O2     NG3C51     CG3C50
   13     1     4    30	 9 ;     NG3C51      SG3O2     NG3C51     CG2R61
    2     1     4     5	 9 ;      OG2P1      SG3O2     NG3C51     CG3C50
    2     1     4    30	 9 ;      OG2P1      SG3O2     NG3C51     CG2R61
    3     1     4     5	 9 ;      OG2P1      SG3O2     NG3C51     CG3C50
    3     1     4    30	 9 ;      OG2P1      SG3O2     NG3C51     CG2R61
    1     4     5    10	 9 ;      SG3O2     NG3C51     CG3C50      CG321
    1     4     5    12	 9 ;      SG3O2     NG3C51     CG3C50     CG3C52
    1     4     5     6	 9 ;      SG3O2     NG3C51     CG3C50      CG321
   30     4     5    10	 9 ;     CG2R61     NG3C51     CG3C50      CG321
   30     4     5    12	 9 ;     CG2R61     NG3C51     CG3C50     CG3C52
   30     4     5     6	 9 ;     CG2R61     NG3C51     CG3C50      CG321
    5     4    30    36	 9 ;     CG3C50     NG3C51     CG2R61     CG2R61
    5     4    30    31	 9 ;     CG3C50     NG3C51     CG2R61     CG2R61
    1     4    30    36	 9 ;      SG3O2     NG3C51     CG2R61     CG2R61
    1     4    30    31	 9 ;      SG3O2     NG3C51     CG2R61     CG2R61
   12     5    10     9	 9 ;     CG3C52     CG3C50      CG321      CG324
   12     5    10    42	 9 ;     CG3C52     CG3C50      CG321       HGA2
   12     5    10    43	 9 ;     CG3C52     CG3C50      CG321       HGA2
    6     5    10     9	 9 ;      CG321     CG3C50      CG321      CG324
    6     5    10    42	 9 ;      CG321     CG3C50      CG321       HGA2
    6     5    10    43	 9 ;      CG321     CG3C50      CG321       HGA2
    4     5    10     9	 9 ;     NG3C51     CG3C50      CG321      CG324
    4     5    10    42	 9 ;     NG3C51     CG3C50      CG321       HGA2
    4     5    10    43	 9 ;     NG3C51     CG3C50      CG321       HGA2
   10     5    12    13	 9 ;      CG321     CG3C50     CG3C52     NG3C51
   10     5    12    47	 9 ;      CG321     CG3C50     CG3C52       HGA2
   10     5    12    48	 9 ;      CG321     CG3C50     CG3C52       HGA2
    6     5    12    13	 9 ;      CG321     CG3C50     CG3C52     NG3C51
    6     5    12    47	 9 ;      CG321     CG3C50     CG3C52       HGA2
    6     5    12    48	 9 ;      CG321     CG3C50     CG3C52       HGA2
    4     5    12    13	 9 ;     NG3C51     CG3C50     CG3C52     NG3C51
    4     5    12    47	 9 ;     NG3C51     CG3C50     CG3C52       HGA2
    4     5    12    48	 9 ;     NG3C51     CG3C50     CG3C52       HGA2
   10     5     6     7	 9 ;      CG321     CG3C50      CG321      CG314
   10     5     6    37	 9 ;      CG321     CG3C50      CG321       HGA2
   10     5     6    38	 9 ;      CG321     CG3C50      CG321       HGA2
   12     5     6     7	 9 ;     CG3C52     CG3C50      CG321      CG314
   12     5     6    37	 9 ;     CG3C52     CG3C50      CG321       HGA2
   12     5     6    38	 9 ;     CG3C52     CG3C50      CG321       HGA2
    4     5     6     7	 9 ;     NG3C51     CG3C50      CG321      CG314
    4     5     6    37	 9 ;     NG3C51     CG3C50      CG321       HGA2
    4     5     6    38	 9 ;     NG3C51     CG3C50      CG321       HGA2
    5     6     7    11	 9 ;     CG3C50      CG321      CG314      CG331
    5     6     7     8	 9 ;     CG3C50      CG321      CG314      NG3P1
    5     6     7    39	 9 ;     CG3C50      CG321      CG314       HGA1
   37     6     7    11	 9 ;       HGA2      CG321      CG314      CG331
   37     6     7     8	 9 ;       HGA2      CG321      CG314      NG3P1
   37     6     7    39	 9 ;       HGA2      CG321      CG314       HGA1
   38     6     7    11	 9 ;       HGA2      CG321      CG314      CG331
   38     6     7     8	 9 ;       HGA2      CG321      CG314      NG3P1
   38     6     7    39	 9 ;       HGA2      CG321      CG314       HGA1
    8     7    11    44	 9 ;      NG3P1      CG314      CG331       HGA3
    8     7    11    45	 9 ;      NG3P1      CG314      CG331       HGA3
    8     7    11    46	 9 ;      NG3P1      CG314      CG331       HGA3
    6     7    11    44	 9 ;      CG321      CG314      CG331       HGA3
    6     7    11    45	 9 ;      CG321      CG314      CG331       HGA3
    6     7    11    46	 9 ;      CG321      CG314      CG331       HGA3
   39     7    11    44	 9 ;       HGA1      CG314      CG331       HGA3
   39     7    11    45	 9 ;       HGA1      CG314      CG331       HGA3
   39     7    11    46	 9 ;       HGA1      CG314      CG331       HGA3
   11     7     8    15	 9 ;      CG331      CG314      NG3P1       HGP2
   11     7     8     9	 9 ;      CG331      CG314      NG3P1      CG324
   11     7     8    16	 9 ;      CG331      CG314      NG3P1      CG324
    6     7     8    15	 9 ;      CG321      CG314      NG3P1       HGP2
    6     7     8     9	 9 ;      CG321      CG314      NG3P1      CG324
    6     7     8    16	 9 ;      CG321      CG314      NG3P1      CG324
   39     7     8    15	 9 ;       HGA1      CG314      NG3P1       HGP2
   39     7     8     9	 9 ;       HGA1      CG314      NG3P1      CG324
   39     7     8    16	 9 ;       HGA1      CG314      NG3P1      CG324
   15     8     9    10	 9 ;       HGP2      NG3P1      CG324      CG321
   15     8     9    40	 9 ;       HGP2      NG3P1      CG324       HGA2
   15     8     9    41	 9 ;       HGP2      NG3P1      CG324       HGA2
   16     8     9    10	 9 ;      CG324      NG3P1      CG324      CG321
   16     8     9    40	 9 ;      CG324      NG3P1      CG324       HGA2
   16     8     9    41	 9 ;      CG324      NG3P1      CG324       HGA2
    7     8     9    10	 9 ;      CG314      NG3P1      CG324      CG321
    7     8     9    40	 9 ;      CG314      NG3P1      CG324       HGA2
    7     8     9    41	 9 ;      CG314      NG3P1      CG324       HGA2
   15     8    16    17	 9 ;       HGP2      NG3P1      CG324     CG2DC1
   15     8    16    52	 9 ;       HGP2      NG3P1      CG324       HGA2
   15     8    16    53	 9 ;       HGP2      NG3P1      CG324       HGA2
    9     8    16    17	 9 ;      CG324      NG3P1      CG324     CG2DC1
    9     8    16    52	 9 ;      CG324      NG3P1      CG324       HGA2
    9     8    16    53	 9 ;      CG324      NG3P1      CG324       HGA2
    7     8    16    17	 9 ;      CG314      NG3P1      CG324     CG2DC1
    7     8    16    52	 9 ;      CG314      NG3P1      CG324       HGA2
    7     8    16    53	 9 ;      CG314      NG3P1      CG324       HGA2
    8     9    10     5	 9 ;      NG3P1      CG324      CG321     CG3C50
    8     9    10    42	 9 ;      NG3P1      CG324      CG321       HGA2
    8     9    10    43	 9 ;      NG3P1      CG324      CG321       HGA2
   40     9    10     5	 9 ;       HGA2      CG324      CG321     CG3C50
   40     9    10    42	 9 ;       HGA2      CG324      CG321       HGA2
   40     9    10    43	 9 ;       HGA2      CG324      CG321       HGA2
   41     9    10     5	 9 ;       HGA2      CG324      CG321     CG3C50
   41     9    10    42	 9 ;       HGA2      CG324      CG321       HGA2
   41     9    10    43	 9 ;       HGA2      CG324      CG321       HGA2
    5    12    13    14	 9 ;     CG3C50     CG3C52     NG3C51      CG331
    5    12    13     1	 9 ;     CG3C50     CG3C52     NG3C51      SG3O2
   47    12    13    14	 9 ;       HGA2     CG3C52     NG3C51      CG331
   47    12    13     1	 9 ;       HGA2     CG3C52     NG3C51      SG3O2
   48    12    13    14	 9 ;       HGA2     CG3C52     NG3C51      CG331
   48    12    13     1	 9 ;       HGA2     CG3C52     NG3C51      SG3O2
   12    13    14    49	 9 ;     CG3C52     NG3C51      CG331       HGA3
   12    13    14    50	 9 ;     CG3C52     NG3C51      CG331       HGA3
   12    13    14    51	 9 ;     CG3C52     NG3C51      CG331       HGA3
    1    13    14    49	 9 ;      SG3O2     NG3C51      CG331       HGA3
    1    13    14    50	 9 ;      SG3O2     NG3C51      CG331       HGA3
    1    13    14    51	 9 ;      SG3O2     NG3C51      CG331       HGA3
    8    16    17    27	 9 ;      NG3P1      CG324     CG2DC1     CG2DC2
    8    16    17    18	 9 ;      NG3P1      CG324     CG2DC1     CG2DC1
   52    16    17    27	 9 ;       HGA2      CG324     CG2DC1     CG2DC2
   52    16    17    18	 9 ;       HGA2      CG324     CG2DC1     CG2DC1
   53    16    17    27	 9 ;       HGA2      CG324     CG2DC1     CG2DC2
   53    16    17    18	 9 ;       HGA2      CG324     CG2DC1     CG2DC1
   18    17    27    23	 9 ;     CG2DC1     CG2DC1     CG2DC2     CG2DC2
   18    17    27    56	 9 ;     CG2DC1     CG2DC1     CG2DC2       HGA4
   16    17    27    23	 9 ;      CG324     CG2DC1     CG2DC2     CG2DC2
   16    17    27    56	 9 ;      CG324     CG2DC1     CG2DC2       HGA4
   27    17    18    19	 9 ;     CG2DC2     CG2DC1     CG2DC1     CG2R51
   27    17    18    54	 9 ;     CG2DC2     CG2DC1     CG2DC1       HGA4
   16    17    18    19	 9 ;      CG324     CG2DC1     CG2DC1     CG2R51
   16    17    18    54	 9 ;      CG324     CG2DC1     CG2DC1       HGA4
   17    18    19    20	 9 ;     CG2DC1     CG2DC1     CG2R51     CG3RC1
   17    18    19    21	 9 ;     CG2DC1     CG2DC1     CG2R51     CG2R51
   54    18    19    20	 9 ;       HGA4     CG2DC1     CG2R51     CG3RC1
   54    18    19    21	 9 ;       HGA4     CG2DC1     CG2R51     CG2R51
   21    19    20    22	 9 ;     CG2R51     CG2R51     CG3RC1     NG3C51
   21    19    20    23	 9 ;     CG2R51     CG2R51     CG3RC1     CG2DC2
   21    19    20    66	 9 ;     CG2R51     CG2R51     CG3RC1       HGA1
   18    19    20    22	 9 ;     CG2DC1     CG2R51     CG3RC1     NG3C51
   18    19    20    23	 9 ;     CG2DC1     CG2R51     CG3RC1     CG2DC2
   18    19    20    66	 9 ;     CG2DC1     CG2R51     CG3RC1       HGA1
   20    19    21    24	 9 ;     CG3RC1     CG2R51     CG2R51     NG3C51
   20    19    21    28	 9 ;     CG3RC1     CG2R51     CG2R51      CG321
   18    19    21    24	 9 ;     CG2DC1     CG2R51     CG2R51     NG3C51
   18    19    21    28	 9 ;     CG2DC1     CG2R51     CG2R51      CG321
   23    20    22    25	 9 ;     CG2DC2     CG3RC1     NG3C51       HGP1
   23    20    22    24	 9 ;     CG2DC2     CG3RC1     NG3C51     NG3C51
   19    20    22    25	 9 ;     CG2R51     CG3RC1     NG3C51       HGP1
   19    20    22    24	 9 ;     CG2R51     CG3RC1     NG3C51     NG3C51
   66    20    22    25	 9 ;       HGA1     CG3RC1     NG3C51       HGP1
   66    20    22    24	 9 ;       HGA1     CG3RC1     NG3C51     NG3C51
   22    20    23    27	 9 ;     NG3C51     CG3RC1     CG2DC2     CG2DC2
   22    20    23    55	 9 ;     NG3C51     CG3RC1     CG2DC2       HGA4
   19    20    23    27	 9 ;     CG2R51     CG3RC1     CG2DC2     CG2DC2
   19    20    23    55	 9 ;     CG2R51     CG3RC1     CG2DC2       HGA4
   66    20    23    27	 9 ;       HGA1     CG3RC1     CG2DC2     CG2DC2
   66    20    23    55	 9 ;       HGA1     CG3RC1     CG2DC2       HGA4
   19    21    24    26	 9 ;     CG2R51     CG2R51     NG3C51       HGP1
   19    21    24    22	 9 ;     CG2R51     CG2R51     NG3C51     NG3C51
   28    21    24    26	 9 ;      CG321     CG2R51     NG3C51       HGP1
   28    21    24    22	 9 ;      CG321     CG2R51     NG3C51     NG3C51
   24    21    28    29	 9 ;     NG3C51     CG2R51      CG321      CG331
   24    21    28    57	 9 ;     NG3C51     CG2R51      CG321       HGA2
   24    21    28    58	 9 ;     NG3C51     CG2R51      CG321       HGA2
   19    21    28    29	 9 ;     CG2R51     CG2R51      CG321      CG331
   19    21    28    57	 9 ;     CG2R51     CG2R51      CG321       HGA2
   19    21    28    58	 9 ;     CG2R51     CG2R51      CG321       HGA2
   25    22    24    26	 9 ;       HGP1     NG3C51     NG3C51       HGP1
   25    22    24    21	 9 ;       HGP1     NG3C51     NG3C51     CG2R51
   20    22    24    26	 9 ;     CG3RC1     NG3C51     NG3C51       HGP1
   20    22    24    21	 9 ;     CG3RC1     NG3C51     NG3C51     CG2R51
   20    23    27    17	 9 ;     CG3RC1     CG2DC2     CG2DC2     CG2DC1
   20    23    27    56	 9 ;     CG3RC1     CG2DC2     CG2DC2       HGA4
   55    23    27    17	 9 ;       HGA4     CG2DC2     CG2DC2     CG2DC1
   55    23    27    56	 9 ;       HGA4     CG2DC2     CG2DC2       HGA4
   21    28    29    59	 9 ;     CG2R51      CG321      CG331       HGA3
   21    28    29    60	 9 ;     CG2R51      CG321      CG331       HGA3
   21    28    29    61	 9 ;     CG2R51      CG321      CG331       HGA3
   57    28    29    59	 9 ;       HGA2      CG321      CG331       HGA3
   57    28    29    60	 9 ;       HGA2      CG321      CG331       HGA3
   57    28    29    61	 9 ;       HGA2      CG321      CG331       HGA3
   58    28    29    59	 9 ;       HGA2      CG321      CG331       HGA3
   58    28    29    60	 9 ;       HGA2      CG321      CG331       HGA3
   58    28    29    61	 9 ;       HGA2      CG321      CG331       HGA3
    4    30    36    35	 9 ;     NG3C51     CG2R61     CG2R61     CG2R61
    4    30    36    65	 9 ;     NG3C51     CG2R61     CG2R61      HGR61
   31    30    36    35	 9 ;     CG2R61     CG2R61     CG2R61     CG2R61
   31    30    36    65	 9 ;     CG2R61     CG2R61     CG2R61      HGR61
    4    30    31    32	 9 ;     NG3C51     CG2R61     CG2R61     CG2R66
    4    30    31    62	 9 ;     NG3C51     CG2R61     CG2R61      HGR62
   36    30    31    32	 9 ;     CG2R61     CG2R61     CG2R61     CG2R66
   36    30    31    62	 9 ;     CG2R61     CG2R61     CG2R61      HGR62
   30    31    32    34	 9 ;     CG2R61     CG2R61     CG2R66     CG2R61
   30    31    32    33	 9 ;     CG2R61     CG2R61     CG2R66       FGR1
   62    31    32    34	 9 ;      HGR62     CG2R61     CG2R66     CG2R61
   62    31    32    33	 9 ;      HGR62     CG2R61     CG2R66       FGR1
   31    32    34    35	 9 ;     CG2R61     CG2R66     CG2R61     CG2R61
   31    32    34    63	 9 ;     CG2R61     CG2R66     CG2R61      HGR62
   33    32    34    35	 9 ;       FGR1     CG2R66     CG2R61     CG2R61
   33    32    34    63	 9 ;       FGR1     CG2R66     CG2R61      HGR62
   32    34    35    36	 9 ;     CG2R66     CG2R61     CG2R61     CG2R61
   32    34    35    64	 9 ;     CG2R66     CG2R61     CG2R61      HGR61
   63    34    35    36	 9 ;      HGR62     CG2R61     CG2R61     CG2R61
   63    34    35    64	 9 ;      HGR62     CG2R61     CG2R61      HGR61
   34    35    36    30	 9 ;     CG2R61     CG2R61     CG2R61     CG2R61
   34    35    36    65	 9 ;     CG2R61     CG2R61     CG2R61      HGR61
   64    35    36    30	 9 ;      HGR61     CG2R61     CG2R61     CG2R61
   64    35    36    65	 9 ;      HGR61     CG2R61     CG2R61      HGR61

