; Created by cgenff_charmm2gmx.py

[ moleculetype ]
; Name			   nrexcl
LIG				 3

[ atoms ]
;	 nr		  type	resnr residue  atom   cgnr	   charge		mass  typeB    chargeB		massB
; residue	 1 LIG rtp LIG q	qsum
     1      NG3P2      1    LIG     N1      1     -0.445     14.007   ;
     2       HGP2      1    LIG     H1      2      0.339      1.008   ;
     3       HGP2      1    LIG     H2      3      0.339      1.008   ;
     4      CG324      1    LIG     C1      4      0.191     12.011   ;
     5      CG311      1    LIG     C2      5      0.089     12.011   ;
     6      OG311      1    LIG     O1      6     -0.625     15.999   ;
     7       HGP1      1    LIG     H3      7      0.415      1.008   ;
     8      CG311      1    LIG     C3      8     -0.007     12.011   ;
     9      NG2S1      1    LIG     N2      9     -0.339     14.007   ;
    10      CG2O1      1    LIG     C4     10      0.488     12.011   ;
    11      OG2D1      1    LIG     O2     11     -0.509     15.999   ;
    12      CG331      1    LIG     C5     12     -0.270     12.011   ;
    13       HGP1      1    LIG     H4     13      0.261      1.008   ;
    14      CG321      1    LIG     C6     14     -0.111     12.011   ;
    15     CG2R61      1    LIG     C7     15      0.011     12.011   ;
    16     CG2R61      1    LIG     C8     16     -0.158     12.011   ;
    17     CG2R61      1    LIG     C9     17     -0.103     12.011   ;
    18     CG2R66      1    LIG    C10     18      0.107     12.011   ;
    19       FGR1      1    LIG      F     19     -0.211     18.998   ;
    20     CG2R61      1    LIG    C11     20     -0.103     12.011   ;
    21     CG2R61      1    LIG    C12     21     -0.158     12.011   ;
    22      CG314      1    LIG    C13     22      0.361     12.011   ;
    23      CG321      1    LIG    C14     23     -0.254     12.011   ;
    24     CG3C41      1    LIG    C15     24      0.278     12.011   ;
    25     OG3C61      1    LIG     O3     25     -0.389     15.999   ;
    26     CG3C41      1    LIG    C16     26     -0.203     12.011   ;
    27     CG3C41      1    LIG    C17     27     -0.203     12.011   ;
    28      CG311      1    LIG    C18     28      0.450     12.011   ;
    29      NG311      1    LIG     N3     29     -0.567     14.007   ;
    30     CG2DC1      1    LIG    C19     30     -0.330     12.011   ;
    31     CG2D2O      1    LIG    C20     31     -0.109     12.011   ;
    32     HGPAM1      1    LIG     HN     32      0.368      1.008   ;
    33     CG2DC2      1    LIG    C21     33      0.091     12.011   ;
    34     CG2DC1      1    LIG    C22     34     -0.108     12.011   ;
    35     CG3C41      1    LIG    C23     35     -0.168     12.011   ;
    36      CG321      1    LIG    C24     36     -0.131     12.011   ;
    37      CG301      1    LIG    C25     37     -0.287     12.011   ;
    38      CG331      1    LIG    C26     38     -0.197     12.011   ;
    39      CG331      1    LIG    C27     39     -0.197     12.011   ;
    40      CG331      1    LIG    C28     40     -0.197     12.011   ;
    41       HGA2      1    LIG    HC2     41      0.090      1.008   ;
    42       HGA2      1    LIG    HC3     42      0.090      1.008   ;
    43       HGA1      1    LIG     HC     43      0.090      1.008   ;
    44       HGA1      1    LIG    HC1     44      0.090      1.008   ;
    45       HGA2      1    LIG    HC4     45      0.090      1.008   ;
    46       HGA2      1    LIG    HC5     46      0.090      1.008   ;
    47      HGR61      1    LIG    HC6     47      0.116      1.008   ;
    48      HGR62      1    LIG    HC7     48      0.179      1.008   ;
    49      HGR62      1    LIG    HC8     49      0.179      1.008   ;
    50      HGR61      1    LIG    HC9     50      0.116      1.008   ;
    51       HGA1      1    LIG   HC10     51      0.090      1.008   ;
    52       HGA2      1    LIG   HC11     52      0.090      1.008   ;
    53       HGA2      1    LIG   HC12     53      0.090      1.008   ;
    54       HGA2      1    LIG   HC13     54      0.090      1.008   ;
    55       HGA2      1    LIG   HC14     55      0.090      1.008   ;
    56       HGA2      1    LIG   HC15     56      0.090      1.008   ;
    57       HGA2      1    LIG   HC16     57      0.090      1.008   ;
    58       HGA4      1    LIG   HC17     58      0.158      1.008   ;
    59       HGA4      1    LIG   HC18     59      0.143      1.008   ;
    60       HGA2      1    LIG   HC19     60      0.090      1.008   ;
    61       HGA2      1    LIG   HC20     61      0.090      1.008   ;
    62       HGA2      1    LIG   HC21     62      0.090      1.008   ;
    63       HGA2      1    LIG   HC22     63      0.090      1.008   ;
    64       HGA3      1    LIG   HC23     64      0.090      1.008   ;
    65       HGA3      1    LIG   HC24     65      0.090      1.008   ;
    66       HGA3      1    LIG   HC25     66      0.090      1.008   ;
    67       HGA3      1    LIG   HC26     67      0.090      1.008   ;
    68       HGA3      1    LIG   HC27     68      0.090      1.008   ;
    69       HGA3      1    LIG   HC28     69      0.090      1.008   ;
    70       HGA3      1    LIG   HC29     70      0.090      1.008   ;
    71       HGA3      1    LIG   HC30     71      0.090      1.008   ;
    72       HGA3      1    LIG   HC31     72      0.090      1.008   ;
    73       HGA3      1    LIG   HC32     73      0.090      1.008   ;
    74       HGA3      1    LIG   HC33     74      0.090      1.008   ;
    75       HGA3      1    LIG   HC34     75      0.090      1.008   ;
    76       HGA1      1    LIG    H41     76      0.090      1.008   ;

[ bonds ]
;	ai	  aj funct			  c0			c1			  c2			c3
    1    22	 1 ;       NG3P2      CG314
    1     3	 1 ;       NG3P2       HGP2
    1     2	 1 ;       NG3P2       HGP2
    1     4	 1 ;       NG3P2      CG324
    4     5	 1 ;       CG324      CG311
    4    41	 1 ;       CG324       HGA2
    4    42	 1 ;       CG324       HGA2
    5     6	 1 ;       CG311      OG311
    5     8	 1 ;       CG311      CG311
    5    43	 1 ;       CG311       HGA1
    6     7	 1 ;       OG311       HGP1
    8    14	 1 ;       CG311      CG321
    8     9	 1 ;       CG311      NG2S1
    8    44	 1 ;       CG311       HGA1
    9    13	 1 ;       NG2S1       HGP1
    9    10	 1 ;       NG2S1      CG2O1
   10    11	 1 ;       CG2O1      OG2D1
   10    12	 1 ;       CG2O1      CG331
   12    67	 1 ;       CG331       HGA3
   12    68	 1 ;       CG331       HGA3
   12    69	 1 ;       CG331       HGA3
   14    15	 1 ;       CG321     CG2R61
   14    45	 1 ;       CG321       HGA2
   14    46	 1 ;       CG321       HGA2
   15    16	 1 ;      CG2R61     CG2R61
   15    21	 1 ;      CG2R61     CG2R61
   16    17	 1 ;      CG2R61     CG2R61
   16    47	 1 ;      CG2R61      HGR61
   17    18	 1 ;      CG2R61     CG2R66
   17    48	 1 ;      CG2R61      HGR62
   18    20	 1 ;      CG2R66     CG2R61
   18    19	 1 ;      CG2R66       FGR1
   20    21	 1 ;      CG2R61     CG2R61
   20    49	 1 ;      CG2R61      HGR62
   21    50	 1 ;      CG2R61      HGR61
   22    30	 1 ;       CG314     CG2DC1
   22    23	 1 ;       CG314      CG321
   22    51	 1 ;       CG314       HGA1
   23    24	 1 ;       CG321     CG3C41
   23    52	 1 ;       CG321       HGA2
   23    53	 1 ;       CG321       HGA2
   24    25	 1 ;      CG3C41     OG3C61
   24    27	 1 ;      CG3C41     CG3C41
   24    26	 1 ;      CG3C41     CG3C41
   25    28	 1 ;      OG3C61      CG311
   26    35	 1 ;      CG3C41     CG3C41
   26    54	 1 ;      CG3C41       HGA2
   26    55	 1 ;      CG3C41       HGA2
   27    35	 1 ;      CG3C41     CG3C41
   27    56	 1 ;      CG3C41       HGA2
   27    57	 1 ;      CG3C41       HGA2
   28    29	 1 ;       CG311      NG311
   28    30	 1 ;       CG311     CG2DC1
   28    76	 1 ;       CG311       HGA1
   29    32	 1 ;       NG311     HGPAM1
   29    31	 1 ;       NG311     CG2D2O
   30    34	 1 ;      CG2DC1     CG2DC1
   31    33	 1 ;      CG2D2O     CG2DC2
   31    58	 1 ;      CG2D2O       HGA4
   33    36	 1 ;      CG2DC2      CG321
   33    34	 1 ;      CG2DC2     CG2DC1
   34    59	 1 ;      CG2DC1       HGA4
   35    60	 1 ;      CG3C41       HGA2
   35    61	 1 ;      CG3C41       HGA2
   36    37	 1 ;       CG321      CG301
   36    62	 1 ;       CG321       HGA2
   36    63	 1 ;       CG321       HGA2
   37    40	 1 ;       CG301      CG331
   37    39	 1 ;       CG301      CG331
   37    38	 1 ;       CG301      CG331
   38    70	 1 ;       CG331       HGA3
   38    71	 1 ;       CG331       HGA3
   38    72	 1 ;       CG331       HGA3
   39    64	 1 ;       CG331       HGA3
   39    65	 1 ;       CG331       HGA3
   39    66	 1 ;       CG331       HGA3
   40    73	 1 ;       CG331       HGA3
   40    74	 1 ;       CG331       HGA3
   40    75	 1 ;       CG331       HGA3

[ pairs ]
;	ai	  aj funct			  c0			c1			  c2			c3
    1     6	 1
    1     8	 1
    1    43	 1
    1    28	 1
    1    34	 1
    1    24	 1
    1    52	 1
    1    53	 1
    2    30	 1
    2    23	 1
    2    51	 1
    2     5	 1
    2    41	 1
    2    42	 1
    3    30	 1
    3    23	 1
    3    51	 1
    3     5	 1
    3    41	 1
    3    42	 1
    4    30	 1
    4    23	 1
    4    51	 1
    4     7	 1
    4    14	 1
    4     9	 1
    4    44	 1
    5    22	 1
    5    15	 1
    5    45	 1
    5    46	 1
    5    13	 1
    5    10	 1
    6    41	 1
    6    42	 1
    6    14	 1
    6     9	 1
    6    44	 1
    7     8	 1
    7    43	 1
    8    41	 1
    8    42	 1
    8    11	 1
    8    12	 1
    8    16	 1
    8    21	 1
    9    43	 1
    9    15	 1
    9    45	 1
    9    46	 1
    9    67	 1
    9    68	 1
    9    69	 1
   10    14	 1
   10    44	 1
   11    13	 1
   11    67	 1
   11    68	 1
   11    69	 1
   12    13	 1
   13    14	 1
   13    44	 1
   14    43	 1
   14    17	 1
   14    47	 1
   14    20	 1
   14    50	 1
   15    44	 1
   15    18	 1
   15    48	 1
   15    49	 1
   16    45	 1
   16    46	 1
   16    20	 1
   16    50	 1
   16    19	 1
   17    21	 1
   17    49	 1
   18    47	 1
   18    50	 1
   19    48	 1
   19    21	 1
   19    49	 1
   20    48	 1
   21    45	 1
   21    46	 1
   21    47	 1
   22    41	 1
   22    42	 1
   22    25	 1
   22    27	 1
   22    26	 1
   22    29	 1
   22    76	 1
   22    33	 1
   22    59	 1
   23    28	 1
   23    34	 1
   23    35	 1
   23    56	 1
   23    57	 1
   23    54	 1
   23    55	 1
   24    30	 1
   24    51	 1
   24    29	 1
   24    76	 1
   24    60	 1
   24    61	 1
   25    52	 1
   25    53	 1
   25    35	 1
   25    56	 1
   25    57	 1
   25    54	 1
   25    55	 1
   25    32	 1
   25    31	 1
   25    34	 1
   26    52	 1
   26    53	 1
   26    28	 1
   26    56	 1
   26    57	 1
   27    52	 1
   27    53	 1
   27    28	 1
   27    54	 1
   27    55	 1
   28    51	 1
   28    33	 1
   28    58	 1
   28    59	 1
   29    34	 1
   29    36	 1
   30    52	 1
   30    53	 1
   30    32	 1
   30    31	 1
   30    36	 1
   31    76	 1
   31    37	 1
   31    62	 1
   31    63	 1
   31    59	 1
   32    76	 1
   32    33	 1
   32    58	 1
   33    40	 1
   33    39	 1
   33    38	 1
   34    51	 1
   34    76	 1
   34    58	 1
   34    37	 1
   34    62	 1
   34    63	 1
   36    58	 1
   36    59	 1
   36    73	 1
   36    74	 1
   36    75	 1
   36    64	 1
   36    65	 1
   36    66	 1
   36    70	 1
   36    71	 1
   36    72	 1
   38    62	 1
   38    63	 1
   38    73	 1
   38    74	 1
   38    75	 1
   38    64	 1
   38    65	 1
   38    66	 1
   39    62	 1
   39    63	 1
   39    73	 1
   39    74	 1
   39    75	 1
   39    70	 1
   39    71	 1
   39    72	 1
   40    62	 1
   40    63	 1
   40    64	 1
   40    65	 1
   40    66	 1
   40    70	 1
   40    71	 1
   40    72	 1
   41    43	 1
   42    43	 1
   43    44	 1
   44    45	 1
   44    46	 1
   47    48	 1
   49    50	 1
   51    52	 1
   51    53	 1
   54    60	 1
   54    61	 1
   55    60	 1
   55    61	 1
   56    60	 1
   56    61	 1
   57    60	 1
   57    61	 1

[ angles ]
;	ai	  aj	ak funct			c0			  c1			c2			  c3
   22     1     3	5 ;      CG314      NG3P2       HGP2
   22     1     2	5 ;      CG314      NG3P2       HGP2
   22     1     4	5 ;      CG314      NG3P2      CG324
    3     1     2	5 ;       HGP2      NG3P2       HGP2
    3     1     4	5 ;       HGP2      NG3P2      CG324
    2     1     4	5 ;       HGP2      NG3P2      CG324
    1     4     5	5 ;      NG3P2      CG324      CG311
    1     4    41	5 ;      NG3P2      CG324       HGA2
    1     4    42	5 ;      NG3P2      CG324       HGA2
    5     4    41	5 ;      CG311      CG324       HGA2
    5     4    42	5 ;      CG311      CG324       HGA2
   41     4    42	5 ;       HGA2      CG324       HGA2
    4     5     6	5 ;      CG324      CG311      OG311
    4     5     8	5 ;      CG324      CG311      CG311
    4     5    43	5 ;      CG324      CG311       HGA1
    6     5     8	5 ;      OG311      CG311      CG311
    6     5    43	5 ;      OG311      CG311       HGA1
    8     5    43	5 ;      CG311      CG311       HGA1
    7     6     5	5 ;       HGP1      OG311      CG311
    5     8    14	5 ;      CG311      CG311      CG321
    5     8     9	5 ;      CG311      CG311      NG2S1
    5     8    44	5 ;      CG311      CG311       HGA1
   14     8     9	5 ;      CG321      CG311      NG2S1
   14     8    44	5 ;      CG321      CG311       HGA1
    9     8    44	5 ;      NG2S1      CG311       HGA1
   13     9     8	5 ;       HGP1      NG2S1      CG311
   13     9    10	5 ;       HGP1      NG2S1      CG2O1
    8     9    10	5 ;      CG311      NG2S1      CG2O1
    9    10    11	5 ;      NG2S1      CG2O1      OG2D1
    9    10    12	5 ;      NG2S1      CG2O1      CG331
   11    10    12	5 ;      OG2D1      CG2O1      CG331
   10    12    67	5 ;      CG2O1      CG331       HGA3
   10    12    68	5 ;      CG2O1      CG331       HGA3
   10    12    69	5 ;      CG2O1      CG331       HGA3
   67    12    68	5 ;       HGA3      CG331       HGA3
   67    12    69	5 ;       HGA3      CG331       HGA3
   68    12    69	5 ;       HGA3      CG331       HGA3
    8    14    15	5 ;      CG311      CG321     CG2R61
    8    14    45	5 ;      CG311      CG321       HGA2
    8    14    46	5 ;      CG311      CG321       HGA2
   15    14    45	5 ;     CG2R61      CG321       HGA2
   15    14    46	5 ;     CG2R61      CG321       HGA2
   45    14    46	5 ;       HGA2      CG321       HGA2
   14    15    16	5 ;      CG321     CG2R61     CG2R61
   14    15    21	5 ;      CG321     CG2R61     CG2R61
   16    15    21	5 ;     CG2R61     CG2R61     CG2R61
   15    16    17	5 ;     CG2R61     CG2R61     CG2R61
   15    16    47	5 ;     CG2R61     CG2R61      HGR61
   17    16    47	5 ;     CG2R61     CG2R61      HGR61
   16    17    18	5 ;     CG2R61     CG2R61     CG2R66
   16    17    48	5 ;     CG2R61     CG2R61      HGR62
   18    17    48	5 ;     CG2R66     CG2R61      HGR62
   17    18    20	5 ;     CG2R61     CG2R66     CG2R61
   17    18    19	5 ;     CG2R61     CG2R66       FGR1
   20    18    19	5 ;     CG2R61     CG2R66       FGR1
   21    20    18	5 ;     CG2R61     CG2R61     CG2R66
   21    20    49	5 ;     CG2R61     CG2R61      HGR62
   18    20    49	5 ;     CG2R66     CG2R61      HGR62
   15    21    20	5 ;     CG2R61     CG2R61     CG2R61
   15    21    50	5 ;     CG2R61     CG2R61      HGR61
   20    21    50	5 ;     CG2R61     CG2R61      HGR61
   30    22    23	5 ;     CG2DC1      CG314      CG321
   30    22     1	5 ;     CG2DC1      CG314      NG3P2
   30    22    51	5 ;     CG2DC1      CG314       HGA1
   23    22     1	5 ;      CG321      CG314      NG3P2
   23    22    51	5 ;      CG321      CG314       HGA1
    1    22    51	5 ;      NG3P2      CG314       HGA1
   24    23    22	5 ;     CG3C41      CG321      CG314
   24    23    52	5 ;     CG3C41      CG321       HGA2
   24    23    53	5 ;     CG3C41      CG321       HGA2
   22    23    52	5 ;      CG314      CG321       HGA2
   22    23    53	5 ;      CG314      CG321       HGA2
   52    23    53	5 ;       HGA2      CG321       HGA2
   25    24    27	5 ;     OG3C61     CG3C41     CG3C41
   25    24    26	5 ;     OG3C61     CG3C41     CG3C41
   25    24    23	5 ;     OG3C61     CG3C41      CG321
   27    24    26	5 ;     CG3C41     CG3C41     CG3C41
   27    24    23	5 ;     CG3C41     CG3C41      CG321
   26    24    23	5 ;     CG3C41     CG3C41      CG321
   28    25    24	5 ;      CG311     OG3C61     CG3C41
   24    26    35	5 ;     CG3C41     CG3C41     CG3C41
   24    26    54	5 ;     CG3C41     CG3C41       HGA2
   24    26    55	5 ;     CG3C41     CG3C41       HGA2
   35    26    54	5 ;     CG3C41     CG3C41       HGA2
   35    26    55	5 ;     CG3C41     CG3C41       HGA2
   54    26    55	5 ;       HGA2     CG3C41       HGA2
   24    27    35	5 ;     CG3C41     CG3C41     CG3C41
   24    27    56	5 ;     CG3C41     CG3C41       HGA2
   24    27    57	5 ;     CG3C41     CG3C41       HGA2
   35    27    56	5 ;     CG3C41     CG3C41       HGA2
   35    27    57	5 ;     CG3C41     CG3C41       HGA2
   56    27    57	5 ;       HGA2     CG3C41       HGA2
   29    28    25	5 ;      NG311      CG311     OG3C61
   29    28    30	5 ;      NG311      CG311     CG2DC1
   29    28    76	5 ;      NG311      CG311       HGA1
   25    28    30	5 ;     OG3C61      CG311     CG2DC1
   25    28    76	5 ;     OG3C61      CG311       HGA1
   30    28    76	5 ;     CG2DC1      CG311       HGA1
   32    29    31	5 ;     HGPAM1      NG311     CG2D2O
   32    29    28	5 ;     HGPAM1      NG311      CG311
   31    29    28	5 ;     CG2D2O      NG311      CG311
   28    30    34	5 ;      CG311     CG2DC1     CG2DC1
   28    30    22	5 ;      CG311     CG2DC1      CG314
   34    30    22	5 ;     CG2DC1     CG2DC1      CG314
   29    31    33	5 ;      NG311     CG2D2O     CG2DC2
   29    31    58	5 ;      NG311     CG2D2O       HGA4
   33    31    58	5 ;     CG2DC2     CG2D2O       HGA4
   31    33    36	5 ;     CG2D2O     CG2DC2      CG321
   31    33    34	5 ;     CG2D2O     CG2DC2     CG2DC1
   36    33    34	5 ;      CG321     CG2DC2     CG2DC1
   33    34    30	5 ;     CG2DC2     CG2DC1     CG2DC1
   33    34    59	5 ;     CG2DC2     CG2DC1       HGA4
   30    34    59	5 ;     CG2DC1     CG2DC1       HGA4
   27    35    26	5 ;     CG3C41     CG3C41     CG3C41
   27    35    60	5 ;     CG3C41     CG3C41       HGA2
   27    35    61	5 ;     CG3C41     CG3C41       HGA2
   26    35    60	5 ;     CG3C41     CG3C41       HGA2
   26    35    61	5 ;     CG3C41     CG3C41       HGA2
   60    35    61	5 ;       HGA2     CG3C41       HGA2
   33    36    37	5 ;     CG2DC2      CG321      CG301
   33    36    62	5 ;     CG2DC2      CG321       HGA2
   33    36    63	5 ;     CG2DC2      CG321       HGA2
   37    36    62	5 ;      CG301      CG321       HGA2
   37    36    63	5 ;      CG301      CG321       HGA2
   62    36    63	5 ;       HGA2      CG321       HGA2
   40    37    36	5 ;      CG331      CG301      CG321
   40    37    39	5 ;      CG331      CG301      CG331
   40    37    38	5 ;      CG331      CG301      CG331
   36    37    39	5 ;      CG321      CG301      CG331
   36    37    38	5 ;      CG321      CG301      CG331
   39    37    38	5 ;      CG331      CG301      CG331
   37    38    70	5 ;      CG301      CG331       HGA3
   37    38    71	5 ;      CG301      CG331       HGA3
   37    38    72	5 ;      CG301      CG331       HGA3
   70    38    71	5 ;       HGA3      CG331       HGA3
   70    38    72	5 ;       HGA3      CG331       HGA3
   71    38    72	5 ;       HGA3      CG331       HGA3
   37    39    64	5 ;      CG301      CG331       HGA3
   37    39    65	5 ;      CG301      CG331       HGA3
   37    39    66	5 ;      CG301      CG331       HGA3
   64    39    65	5 ;       HGA3      CG331       HGA3
   64    39    66	5 ;       HGA3      CG331       HGA3
   65    39    66	5 ;       HGA3      CG331       HGA3
   37    40    73	5 ;      CG301      CG331       HGA3
   37    40    74	5 ;      CG301      CG331       HGA3
   37    40    75	5 ;      CG301      CG331       HGA3
   73    40    74	5 ;       HGA3      CG331       HGA3
   73    40    75	5 ;       HGA3      CG331       HGA3
   74    40    75	5 ;       HGA3      CG331       HGA3

[ dihedrals ]
;	ai	  aj	ak	  al funct			  c0			c1			  c2			c3			  c4			c5
    3     1    22    30	 9 ;       HGP2      NG3P2      CG314     CG2DC1
    3     1    22    23	 9 ;       HGP2      NG3P2      CG314      CG321
    3     1    22    51	 9 ;       HGP2      NG3P2      CG314       HGA1
    2     1    22    30	 9 ;       HGP2      NG3P2      CG314     CG2DC1
    2     1    22    23	 9 ;       HGP2      NG3P2      CG314      CG321
    2     1    22    51	 9 ;       HGP2      NG3P2      CG314       HGA1
    4     1    22    30	 9 ;      CG324      NG3P2      CG314     CG2DC1
    4     1    22    23	 9 ;      CG324      NG3P2      CG314      CG321
    4     1    22    51	 9 ;      CG324      NG3P2      CG314       HGA1
   22     1     4     5	 9 ;      CG314      NG3P2      CG324      CG311
   22     1     4    41	 9 ;      CG314      NG3P2      CG324       HGA2
   22     1     4    42	 9 ;      CG314      NG3P2      CG324       HGA2
    3     1     4     5	 9 ;       HGP2      NG3P2      CG324      CG311
    3     1     4    41	 9 ;       HGP2      NG3P2      CG324       HGA2
    3     1     4    42	 9 ;       HGP2      NG3P2      CG324       HGA2
    2     1     4     5	 9 ;       HGP2      NG3P2      CG324      CG311
    2     1     4    41	 9 ;       HGP2      NG3P2      CG324       HGA2
    2     1     4    42	 9 ;       HGP2      NG3P2      CG324       HGA2
    1     4     5     6	 9 ;      NG3P2      CG324      CG311      OG311
    1     4     5     8	 9 ;      NG3P2      CG324      CG311      CG311
    1     4     5    43	 9 ;      NG3P2      CG324      CG311       HGA1
   41     4     5     6	 9 ;       HGA2      CG324      CG311      OG311
   41     4     5     8	 9 ;       HGA2      CG324      CG311      CG311
   41     4     5    43	 9 ;       HGA2      CG324      CG311       HGA1
   42     4     5     6	 9 ;       HGA2      CG324      CG311      OG311
   42     4     5     8	 9 ;       HGA2      CG324      CG311      CG311
   42     4     5    43	 9 ;       HGA2      CG324      CG311       HGA1
    4     5     6     7	 9 ;      CG324      CG311      OG311       HGP1
    8     5     6     7	 9 ;      CG311      CG311      OG311       HGP1
   43     5     6     7	 9 ;       HGA1      CG311      OG311       HGP1
    4     5     8    14	 9 ;      CG324      CG311      CG311      CG321
    4     5     8     9	 9 ;      CG324      CG311      CG311      NG2S1
    4     5     8    44	 9 ;      CG324      CG311      CG311       HGA1
    6     5     8    14	 9 ;      OG311      CG311      CG311      CG321
    6     5     8     9	 9 ;      OG311      CG311      CG311      NG2S1
    6     5     8    44	 9 ;      OG311      CG311      CG311       HGA1
   43     5     8    14	 9 ;       HGA1      CG311      CG311      CG321
   43     5     8     9	 9 ;       HGA1      CG311      CG311      NG2S1
   43     5     8    44	 9 ;       HGA1      CG311      CG311       HGA1
    5     8    14    15	 9 ;      CG311      CG311      CG321     CG2R61
    5     8    14    45	 9 ;      CG311      CG311      CG321       HGA2
    5     8    14    46	 9 ;      CG311      CG311      CG321       HGA2
    9     8    14    15	 9 ;      NG2S1      CG311      CG321     CG2R61
    9     8    14    45	 9 ;      NG2S1      CG311      CG321       HGA2
    9     8    14    46	 9 ;      NG2S1      CG311      CG321       HGA2
   44     8    14    15	 9 ;       HGA1      CG311      CG321     CG2R61
   44     8    14    45	 9 ;       HGA1      CG311      CG321       HGA2
   44     8    14    46	 9 ;       HGA1      CG311      CG321       HGA2
    5     8     9    13	 9 ;      CG311      CG311      NG2S1       HGP1
    5     8     9    10	 9 ;      CG311      CG311      NG2S1      CG2O1
   14     8     9    13	 9 ;      CG321      CG311      NG2S1       HGP1
   14     8     9    10	 9 ;      CG321      CG311      NG2S1      CG2O1
   44     8     9    13	 9 ;       HGA1      CG311      NG2S1       HGP1
   44     8     9    10	 9 ;       HGA1      CG311      NG2S1      CG2O1
   13     9    10    11	 9 ;       HGP1      NG2S1      CG2O1      OG2D1
   13     9    10    12	 9 ;       HGP1      NG2S1      CG2O1      CG331
    8     9    10    11	 9 ;      CG311      NG2S1      CG2O1      OG2D1
    8     9    10    12	 9 ;      CG311      NG2S1      CG2O1      CG331
    9    10    12    67	 9 ;      NG2S1      CG2O1      CG331       HGA3
    9    10    12    68	 9 ;      NG2S1      CG2O1      CG331       HGA3
    9    10    12    69	 9 ;      NG2S1      CG2O1      CG331       HGA3
   11    10    12    67	 9 ;      OG2D1      CG2O1      CG331       HGA3
   11    10    12    68	 9 ;      OG2D1      CG2O1      CG331       HGA3
   11    10    12    69	 9 ;      OG2D1      CG2O1      CG331       HGA3
    8    14    15    16	 9 ;      CG311      CG321     CG2R61     CG2R61
    8    14    15    21	 9 ;      CG311      CG321     CG2R61     CG2R61
   45    14    15    16	 9 ;       HGA2      CG321     CG2R61     CG2R61
   45    14    15    21	 9 ;       HGA2      CG321     CG2R61     CG2R61
   46    14    15    16	 9 ;       HGA2      CG321     CG2R61     CG2R61
   46    14    15    21	 9 ;       HGA2      CG321     CG2R61     CG2R61
   14    15    16    17	 9 ;      CG321     CG2R61     CG2R61     CG2R61
   14    15    16    47	 9 ;      CG321     CG2R61     CG2R61      HGR61
   21    15    16    17	 9 ;     CG2R61     CG2R61     CG2R61     CG2R61
   21    15    16    47	 9 ;     CG2R61     CG2R61     CG2R61      HGR61
   14    15    21    20	 9 ;      CG321     CG2R61     CG2R61     CG2R61
   14    15    21    50	 9 ;      CG321     CG2R61     CG2R61      HGR61
   16    15    21    20	 9 ;     CG2R61     CG2R61     CG2R61     CG2R61
   16    15    21    50	 9 ;     CG2R61     CG2R61     CG2R61      HGR61
   15    16    17    18	 9 ;     CG2R61     CG2R61     CG2R61     CG2R66
   15    16    17    48	 9 ;     CG2R61     CG2R61     CG2R61      HGR62
   47    16    17    18	 9 ;      HGR61     CG2R61     CG2R61     CG2R66
   47    16    17    48	 9 ;      HGR61     CG2R61     CG2R61      HGR62
   16    17    18    20	 9 ;     CG2R61     CG2R61     CG2R66     CG2R61
   16    17    18    19	 9 ;     CG2R61     CG2R61     CG2R66       FGR1
   48    17    18    20	 9 ;      HGR62     CG2R61     CG2R66     CG2R61
   48    17    18    19	 9 ;      HGR62     CG2R61     CG2R66       FGR1
   17    18    20    21	 9 ;     CG2R61     CG2R66     CG2R61     CG2R61
   17    18    20    49	 9 ;     CG2R61     CG2R66     CG2R61      HGR62
   19    18    20    21	 9 ;       FGR1     CG2R66     CG2R61     CG2R61
   19    18    20    49	 9 ;       FGR1     CG2R66     CG2R61      HGR62
   18    20    21    15	 9 ;     CG2R66     CG2R61     CG2R61     CG2R61
   18    20    21    50	 9 ;     CG2R66     CG2R61     CG2R61      HGR61
   49    20    21    15	 9 ;      HGR62     CG2R61     CG2R61     CG2R61
   49    20    21    50	 9 ;      HGR62     CG2R61     CG2R61      HGR61
   23    22    30    28	 9 ;      CG321      CG314     CG2DC1      CG311
   23    22    30    34	 9 ;      CG321      CG314     CG2DC1     CG2DC1
    1    22    30    28	 9 ;      NG3P2      CG314     CG2DC1      CG311
    1    22    30    34	 9 ;      NG3P2      CG314     CG2DC1     CG2DC1
   51    22    30    28	 9 ;       HGA1      CG314     CG2DC1      CG311
   51    22    30    34	 9 ;       HGA1      CG314     CG2DC1     CG2DC1
   30    22    23    24	 9 ;     CG2DC1      CG314      CG321     CG3C41
   30    22    23    52	 9 ;     CG2DC1      CG314      CG321       HGA2
   30    22    23    53	 9 ;     CG2DC1      CG314      CG321       HGA2
    1    22    23    24	 9 ;      NG3P2      CG314      CG321     CG3C41
    1    22    23    52	 9 ;      NG3P2      CG314      CG321       HGA2
    1    22    23    53	 9 ;      NG3P2      CG314      CG321       HGA2
   51    22    23    24	 9 ;       HGA1      CG314      CG321     CG3C41
   51    22    23    52	 9 ;       HGA1      CG314      CG321       HGA2
   51    22    23    53	 9 ;       HGA1      CG314      CG321       HGA2
   22    23    24    25	 9 ;      CG314      CG321     CG3C41     OG3C61
   22    23    24    27	 9 ;      CG314      CG321     CG3C41     CG3C41
   22    23    24    26	 9 ;      CG314      CG321     CG3C41     CG3C41
   52    23    24    25	 9 ;       HGA2      CG321     CG3C41     OG3C61
   52    23    24    27	 9 ;       HGA2      CG321     CG3C41     CG3C41
   52    23    24    26	 9 ;       HGA2      CG321     CG3C41     CG3C41
   53    23    24    25	 9 ;       HGA2      CG321     CG3C41     OG3C61
   53    23    24    27	 9 ;       HGA2      CG321     CG3C41     CG3C41
   53    23    24    26	 9 ;       HGA2      CG321     CG3C41     CG3C41
   27    24    25    28	 9 ;     CG3C41     CG3C41     OG3C61      CG311
   26    24    25    28	 9 ;     CG3C41     CG3C41     OG3C61      CG311
   23    24    25    28	 9 ;      CG321     CG3C41     OG3C61      CG311
   25    24    27    35	 9 ;     OG3C61     CG3C41     CG3C41     CG3C41
   25    24    27    56	 9 ;     OG3C61     CG3C41     CG3C41       HGA2
   25    24    27    57	 9 ;     OG3C61     CG3C41     CG3C41       HGA2
   26    24    27    35	 9 ;     CG3C41     CG3C41     CG3C41     CG3C41
   26    24    27    56	 9 ;     CG3C41     CG3C41     CG3C41       HGA2
   26    24    27    57	 9 ;     CG3C41     CG3C41     CG3C41       HGA2
   23    24    27    35	 9 ;      CG321     CG3C41     CG3C41     CG3C41
   23    24    27    56	 9 ;      CG321     CG3C41     CG3C41       HGA2
   23    24    27    57	 9 ;      CG321     CG3C41     CG3C41       HGA2
   25    24    26    35	 9 ;     OG3C61     CG3C41     CG3C41     CG3C41
   25    24    26    54	 9 ;     OG3C61     CG3C41     CG3C41       HGA2
   25    24    26    55	 9 ;     OG3C61     CG3C41     CG3C41       HGA2
   27    24    26    35	 9 ;     CG3C41     CG3C41     CG3C41     CG3C41
   27    24    26    54	 9 ;     CG3C41     CG3C41     CG3C41       HGA2
   27    24    26    55	 9 ;     CG3C41     CG3C41     CG3C41       HGA2
   23    24    26    35	 9 ;      CG321     CG3C41     CG3C41     CG3C41
   23    24    26    54	 9 ;      CG321     CG3C41     CG3C41       HGA2
   23    24    26    55	 9 ;      CG321     CG3C41     CG3C41       HGA2
   24    25    28    29	 9 ;     CG3C41     OG3C61      CG311      NG311
   24    25    28    30	 9 ;     CG3C41     OG3C61      CG311     CG2DC1
   24    25    28    76	 9 ;     CG3C41     OG3C61      CG311       HGA1
   24    26    35    27	 9 ;     CG3C41     CG3C41     CG3C41     CG3C41
   24    26    35    60	 9 ;     CG3C41     CG3C41     CG3C41       HGA2
   24    26    35    61	 9 ;     CG3C41     CG3C41     CG3C41       HGA2
   54    26    35    27	 9 ;       HGA2     CG3C41     CG3C41     CG3C41
   54    26    35    60	 9 ;       HGA2     CG3C41     CG3C41       HGA2
   54    26    35    61	 9 ;       HGA2     CG3C41     CG3C41       HGA2
   55    26    35    27	 9 ;       HGA2     CG3C41     CG3C41     CG3C41
   55    26    35    60	 9 ;       HGA2     CG3C41     CG3C41       HGA2
   55    26    35    61	 9 ;       HGA2     CG3C41     CG3C41       HGA2
   24    27    35    26	 9 ;     CG3C41     CG3C41     CG3C41     CG3C41
   24    27    35    60	 9 ;     CG3C41     CG3C41     CG3C41       HGA2
   24    27    35    61	 9 ;     CG3C41     CG3C41     CG3C41       HGA2
   56    27    35    26	 9 ;       HGA2     CG3C41     CG3C41     CG3C41
   56    27    35    60	 9 ;       HGA2     CG3C41     CG3C41       HGA2
   56    27    35    61	 9 ;       HGA2     CG3C41     CG3C41       HGA2
   57    27    35    26	 9 ;       HGA2     CG3C41     CG3C41     CG3C41
   57    27    35    60	 9 ;       HGA2     CG3C41     CG3C41       HGA2
   57    27    35    61	 9 ;       HGA2     CG3C41     CG3C41       HGA2
   25    28    29    32	 9 ;     OG3C61      CG311      NG311     HGPAM1
   25    28    29    31	 9 ;     OG3C61      CG311      NG311     CG2D2O
   30    28    29    32	 9 ;     CG2DC1      CG311      NG311     HGPAM1
   30    28    29    31	 9 ;     CG2DC1      CG311      NG311     CG2D2O
   76    28    29    32	 9 ;       HGA1      CG311      NG311     HGPAM1
   76    28    29    31	 9 ;       HGA1      CG311      NG311     CG2D2O
   29    28    30    34	 9 ;      NG311      CG311     CG2DC1     CG2DC1
   29    28    30    22	 9 ;      NG311      CG311     CG2DC1      CG314
   25    28    30    34	 9 ;     OG3C61      CG311     CG2DC1     CG2DC1
   25    28    30    22	 9 ;     OG3C61      CG311     CG2DC1      CG314
   76    28    30    34	 9 ;       HGA1      CG311     CG2DC1     CG2DC1
   76    28    30    22	 9 ;       HGA1      CG311     CG2DC1      CG314
   32    29    31    33	 9 ;     HGPAM1      NG311     CG2D2O     CG2DC2
   32    29    31    58	 9 ;     HGPAM1      NG311     CG2D2O       HGA4
   28    29    31    33	 9 ;      CG311      NG311     CG2D2O     CG2DC2
   28    29    31    58	 9 ;      CG311      NG311     CG2D2O       HGA4
   28    30    34    33	 9 ;      CG311     CG2DC1     CG2DC1     CG2DC2
   28    30    34    59	 9 ;      CG311     CG2DC1     CG2DC1       HGA4
   22    30    34    33	 9 ;      CG314     CG2DC1     CG2DC1     CG2DC2
   22    30    34    59	 9 ;      CG314     CG2DC1     CG2DC1       HGA4
   29    31    33    36	 9 ;      NG311     CG2D2O     CG2DC2      CG321
   29    31    33    34	 9 ;      NG311     CG2D2O     CG2DC2     CG2DC1
   58    31    33    36	 9 ;       HGA4     CG2D2O     CG2DC2      CG321
   58    31    33    34	 9 ;       HGA4     CG2D2O     CG2DC2     CG2DC1
   31    33    36    37	 9 ;     CG2D2O     CG2DC2      CG321      CG301
   31    33    36    62	 9 ;     CG2D2O     CG2DC2      CG321       HGA2
   31    33    36    63	 9 ;     CG2D2O     CG2DC2      CG321       HGA2
   34    33    36    37	 9 ;     CG2DC1     CG2DC2      CG321      CG301
   34    33    36    62	 9 ;     CG2DC1     CG2DC2      CG321       HGA2
   34    33    36    63	 9 ;     CG2DC1     CG2DC2      CG321       HGA2
   31    33    34    30	 9 ;     CG2D2O     CG2DC2     CG2DC1     CG2DC1
   31    33    34    59	 9 ;     CG2D2O     CG2DC2     CG2DC1       HGA4
   36    33    34    30	 9 ;      CG321     CG2DC2     CG2DC1     CG2DC1
   36    33    34    59	 9 ;      CG321     CG2DC2     CG2DC1       HGA4
   33    36    37    40	 9 ;     CG2DC2      CG321      CG301      CG331
   33    36    37    39	 9 ;     CG2DC2      CG321      CG301      CG331
   33    36    37    38	 9 ;     CG2DC2      CG321      CG301      CG331
   62    36    37    40	 9 ;       HGA2      CG321      CG301      CG331
   62    36    37    39	 9 ;       HGA2      CG321      CG301      CG331
   62    36    37    38	 9 ;       HGA2      CG321      CG301      CG331
   63    36    37    40	 9 ;       HGA2      CG321      CG301      CG331
   63    36    37    39	 9 ;       HGA2      CG321      CG301      CG331
   63    36    37    38	 9 ;       HGA2      CG321      CG301      CG331
   36    37    40    73	 9 ;      CG321      CG301      CG331       HGA3
   36    37    40    74	 9 ;      CG321      CG301      CG331       HGA3
   36    37    40    75	 9 ;      CG321      CG301      CG331       HGA3
   39    37    40    73	 9 ;      CG331      CG301      CG331       HGA3
   39    37    40    74	 9 ;      CG331      CG301      CG331       HGA3
   39    37    40    75	 9 ;      CG331      CG301      CG331       HGA3
   38    37    40    73	 9 ;      CG331      CG301      CG331       HGA3
   38    37    40    74	 9 ;      CG331      CG301      CG331       HGA3
   38    37    40    75	 9 ;      CG331      CG301      CG331       HGA3
   40    37    39    64	 9 ;      CG331      CG301      CG331       HGA3
   40    37    39    65	 9 ;      CG331      CG301      CG331       HGA3
   40    37    39    66	 9 ;      CG331      CG301      CG331       HGA3
   36    37    39    64	 9 ;      CG321      CG301      CG331       HGA3
   36    37    39    65	 9 ;      CG321      CG301      CG331       HGA3
   36    37    39    66	 9 ;      CG321      CG301      CG331       HGA3
   38    37    39    64	 9 ;      CG331      CG301      CG331       HGA3
   38    37    39    65	 9 ;      CG331      CG301      CG331       HGA3
   38    37    39    66	 9 ;      CG331      CG301      CG331       HGA3
   40    37    38    70	 9 ;      CG331      CG301      CG331       HGA3
   40    37    38    71	 9 ;      CG331      CG301      CG331       HGA3
   40    37    38    72	 9 ;      CG331      CG301      CG331       HGA3
   36    37    38    70	 9 ;      CG321      CG301      CG331       HGA3
   36    37    38    71	 9 ;      CG321      CG301      CG331       HGA3
   36    37    38    72	 9 ;      CG321      CG301      CG331       HGA3
   39    37    38    70	 9 ;      CG331      CG301      CG331       HGA3
   39    37    38    71	 9 ;      CG331      CG301      CG331       HGA3
   39    37    38    72	 9 ;      CG331      CG301      CG331       HGA3

[ dihedrals ]
;	ai	  aj	ak	  al funct			  c0			c1			  c2			c3
   10    12     9    11	 2
   31    33    29    58	 2

