Guyana Rwanda Oman Macau Angola Cameroon Senegal
   76
    1LIG     N1    1  -1.562   0.379  -1.423
    1LIG     H1    2  -1.492   0.426  -1.364
    1LIG     H2    3  -1.555   0.278  -1.399
    1LIG     C1    4  -1.700   0.419  -1.379
    1LIG     C2    5  -1.688   0.519  -1.263
    1LIG     O1    6  -1.647   0.642  -1.324
    1LIG     H3    7  -1.559   0.666  -1.288
    1LIG     C3    8  -1.819   0.525  -1.180
    1LIG     N2    9  -1.868   0.664  -1.180
    1LIG     C4   10  -1.938   0.738  -1.090
    1LIG     O2   11  -1.936   0.860  -1.108
    1LIG     C5   12  -2.017   0.676  -0.980
    1LIG     H4   13  -1.829   0.730  -1.246
    1LIG     C6   14  -1.920   0.417  -1.227
    1LIG     C7   15  -2.031   0.371  -1.135
    1LIG     C8   16  -2.164   0.389  -1.177
    1LIG     C9   17  -2.271   0.331  -1.108
    1LIG    C10   18  -2.245   0.254  -0.995
    1LIG      F   19  -2.347   0.194  -0.932
    1LIG    C11   20  -2.116   0.237  -0.949
    1LIG    C12   21  -2.009   0.295  -1.018
    1LIG    C13   22  -1.523   0.398  -1.569
    1LIG    C14   23  -1.456   0.534  -1.577
    1LIG    C15   24  -1.356   0.552  -1.692
    1LIG     O3   25  -1.341   0.436  -1.776
    1LIG    C16   26  -1.221   0.618  -1.646
    1LIG    C17   27  -1.379   0.688  -1.768
    1LIG    C18   28  -1.340   0.314  -1.712
    1LIG     N3   29  -1.251   0.224  -1.756
    1LIG    C19   30  -1.436   0.287  -1.617
    1LIG    C20   31  -1.259   0.099  -1.704
    1LIG     HN   32  -1.181   0.248  -1.826
    1LIG    C21   33  -1.358   0.059  -1.615
    1LIG    C22   34  -1.450   0.155  -1.575
    1LIG    C23   35  -1.292   0.754  -1.659
    1LIG    C24   36  -1.367  -0.082  -1.562
    1LIG    C25   37  -1.266  -0.121  -1.450
    1LIG    C26   38  -1.251  -0.011  -1.343
    1LIG    C27   39  -1.318  -0.248  -1.380
    1LIG    C28   40  -1.128  -0.151  -1.510
    1LIG    HC2   41  -1.753   0.466  -1.462
    1LIG    HC3   42  -1.756   0.331  -1.346
    1LIG     HC   43  -1.608   0.485  -1.197
    1LIG    HC1   44  -1.793   0.501  -1.077
    1LIG    HC4   45  -1.968   0.456  -1.316
    1LIG    HC5   46  -1.862   0.329  -1.255
    1LIG    HC6   47  -2.184   0.449  -1.265
    1LIG    HC7   48  -2.372   0.346  -1.142
    1LIG    HC8   49  -2.097   0.179  -0.860
    1LIG    HC9   50  -1.908   0.282  -0.982
    1LIG   HC10   51  -1.614   0.400  -1.629
    1LIG   HC11   52  -1.534   0.610  -1.589
    1LIG   HC12   53  -1.404   0.553  -1.484
    1LIG   HC13   54  -1.138   0.603  -1.715
    1LIG   HC14   55  -1.196   0.593  -1.543
    1LIG   HC15   56  -1.482   0.722  -1.771
    1LIG   HC16   57  -1.331   0.690  -1.866
    1LIG   HC17   58  -1.184   0.027  -1.734
    1LIG   HC18   59  -1.533   0.127  -1.511
    1LIG   HC19   60  -1.347   0.786  -1.570
    1LIG   HC20   61  -1.227   0.832  -1.698
    1LIG   HC21   62  -1.468  -0.096  -1.522
    1LIG   HC22   63  -1.354  -0.151  -1.645
    1LIG   HC23   64  -1.330  -0.328  -1.454
    1LIG   HC24   65  -1.415  -0.227  -1.334
    1LIG   HC25   66  -1.247  -0.279  -1.304
    1LIG   HC26   67  -2.035   0.750  -0.902
    1LIG   HC27   68  -2.112   0.641  -1.018
    1LIG   HC28   69  -1.961   0.593  -0.938
    1LIG   HC29   70  -1.214   0.080  -1.390
    1LIG   HC30   71  -1.348   0.008  -1.297
    1LIG   HC31   72  -1.180  -0.044  -1.267
    1LIG   HC32   73  -1.089  -0.062  -1.560
    1LIG   HC33   74  -1.136  -0.233  -1.582
    1LIG   HC34   75  -1.059  -0.181  -1.430
    1LIG    H41   76  -1.270   0.351  -1.637
   0.00000   0.00000   0.00000
