Great Red Owns Many ACres of Sand 
   77
    1LIG     N1    1  -1.782   0.575  -1.672
    1LIG     H1    2  -1.811   0.560  -1.770
    1LIG     H2    3  -1.680   0.586  -1.678
    1LIG     C1    4  -1.842   0.708  -1.629
    1LIG     C2    5  -1.726   0.807  -1.605
    1LIG     O1    6  -1.720   0.830  -1.464
    1LIG     H3    7  -1.686   0.920  -1.446
    1LIG     C3    8  -1.590   0.763  -1.667
    1LIG     N2    9  -1.564   0.840  -1.789
    1LIG     C4   10  -1.588   0.790  -1.915
    1LIG     O2   11  -1.649   0.685  -1.933
    1LIG     C5   12  -1.543   0.881  -2.027
    1LIG     H4   13  -1.503   0.921  -1.783
    1LIG     C6   14  -1.471   0.782  -1.569
    1LIG     C7   15  -1.349   0.696  -1.600
    1LIG     C8   16  -1.357   0.589  -1.689
    1LIG     C9   17  -1.246   0.509  -1.715
    1LIG     F1   18  -1.256   0.407  -1.801
    1LIG    C10   19  -1.124   0.534  -1.654
    1LIG    C11   20  -1.115   0.642  -1.568
    1LIG    C12   21  -1.225   0.723  -1.541
    1LIG     F2   22  -0.998   0.670  -1.509
    1LIG    C13   23  -1.806   0.445  -1.593
    1LIG    C14   24  -1.935   0.377  -1.646
    1LIG    C15   25  -1.976   0.257  -1.560
    1LIG    C16   26  -2.000   0.298  -1.415
    1LIG    C17   27  -1.880   0.371  -1.355
    1LIG    C18   28  -1.831   0.485  -1.445
    1LIG    C19   29  -1.682   0.354  -1.615
    1LIG    C20   30  -1.570   0.361  -1.528
    1LIG    C21   31  -1.459   0.274  -1.542
    1LIG    C22   32  -1.455   0.185  -1.650
    1LIG    C23   33  -1.563   0.178  -1.737
    1LIG    C24   34  -1.676   0.259  -1.718
    1LIG    C25   35  -1.349   0.263  -1.436
    1LIG    C26   36  -1.331   0.400  -1.368
    1LIG    C27   37  -1.220   0.401  -1.263
    1LIG    C28   38  -1.090   0.346  -1.320
    1LIG    C29   39  -1.109   0.206  -1.378
    1LIG    C30   40  -1.216   0.206  -1.488
    1LIG    HC2   41  -1.900   0.696  -1.538
    1LIG    HC3   42  -1.907   0.747  -1.708
    1LIG     HC   43  -1.753   0.902  -1.652
    1LIG    HC1   44  -1.596   0.658  -1.694
    1LIG    HC4   45  -1.565   0.834  -2.123
    1LIG    HC5   46  -1.436   0.898  -2.019
    1LIG    HC6   47  -1.596   0.976  -2.019
    1LIG    HC7   48  -1.440   0.887  -1.572
    1LIG    HC8   49  -1.505   0.759  -1.468
    1LIG    HC9   50  -1.451   0.567  -1.739
    1LIG   HC10   51  -1.038   0.471  -1.673
    1LIG   HC11   52  -1.215   0.807  -1.474
    1LIG   HC12   53  -1.917   0.343  -1.748
    1LIG   HC13   54  -2.016   0.450  -1.647
    1LIG   HC14   55  -2.068   0.214  -1.600
    1LIG   HC15   56  -1.897   0.182  -1.563
    1LIG   HC16   57  -2.020   0.208  -1.356
    1LIG   HC17   58  -2.087   0.363  -1.410
    1LIG   HC18   59  -1.909   0.412  -1.258
    1LIG   HC19   60  -1.799   0.299  -1.341
    1LIG   HC20   61  -1.738   0.523  -1.403
    1LIG   HC21   62  -1.905   0.565  -1.442
    1LIG   HC22   63  -1.569   0.434  -1.449
    1LIG   HC23   64  -1.369   0.123  -1.666
    1LIG   HC24   65  -1.559   0.110  -1.821
    1LIG   HC25   66  -1.760   0.247  -1.784
    1LIG   HC26   67  -1.386   0.194  -1.360
    1LIG   HC27   68  -1.425   0.427  -1.319
    1LIG   HC28   69  -1.309   0.475  -1.444
    1LIG   HC29   70  -1.204   0.503  -1.230
    1LIG   HC30   71  -1.250   0.340  -1.178
    1LIG   HC31   72  -1.015   0.342  -1.241
    1LIG   HC32   73  -1.054   0.412  -1.399
    1LIG   HC33   74  -1.015   0.172  -1.420
    1LIG   HC34   75  -1.140   0.139  -1.298
    1LIG   HC35   76  -1.232   0.103  -1.521
    1LIG   HC36   77  -1.182   0.266  -1.572
   0.00000   0.00000   0.00000
