; Created by cgenff_charmm2gmx.py

[ moleculetype ]
; Name			   nrexcl
LIG				 3

[ atoms ]
;	 nr		  type	resnr residue  atom   cgnr	   charge		mass  typeB    chargeB		massB
; residue	 1 LIG rtp LIG q	qsum
     1      NG3P2      1    LIG     N1      1     -0.450     14.007   ;
     2       HGP2      1    LIG     H1      2      0.341      1.008   ;
     3       HGP2      1    LIG     H2      3      0.341      1.008   ;
     4      CG324      1    LIG     C1      4      0.208     12.011   ;
     5      CG311      1    LIG     C2      5      0.089     12.011   ;
     6      OG311      1    LIG     O1      6     -0.625     15.999   ;
     7       HGP1      1    LIG     H3      7      0.415      1.008   ;
     8      CG311      1    LIG     C3      8     -0.007     12.011   ;
     9      NG2S1      1    LIG     N2      9     -0.339     14.007   ;
    10      CG2O1      1    LIG     C4     10      0.488     12.011   ;
    11      OG2D1      1    LIG     O2     11     -0.509     15.999   ;
    12      CG331      1    LIG     C5     12     -0.270     12.011   ;
    13       HGP1      1    LIG     H4     13      0.261      1.008   ;
    14      CG321      1    LIG     C6     14     -0.153     12.011   ;
    15     CG2R61      1    LIG     C7     15      0.057     12.011   ;
    16     CG2R61      1    LIG     C8     16     -0.218     12.011   ;
    17     CG2R66      1    LIG     C9     17      0.261     12.011   ;
    18       FGR1      1    LIG     F1     18     -0.210     18.998   ;
    19     CG2R61      1    LIG    C10     19     -0.240     12.011   ;
    20     CG2R66      1    LIG    C11     20      0.261     12.011   ;
    21     CG2R61      1    LIG    C12     21     -0.218     12.011   ;
    22       FGR1      1    LIG     F2     22     -0.210     18.998   ;
    23      CG301      1    LIG    C13     23      0.295     12.011   ;
    24      CG321      1    LIG    C14     24     -0.147     12.011   ;
    25      CG321      1    LIG    C15     25     -0.202     12.011   ;
    26      CG321      1    LIG    C16     26     -0.176     12.011   ;
    27      CG321      1    LIG    C17     27     -0.202     12.011   ;
    28      CG321      1    LIG    C18     28     -0.147     12.011   ;
    29     CG2R61      1    LIG    C19     29      0.084     12.011   ;
    30     CG2R61      1    LIG    C20     30     -0.125     12.011   ;
    31     CG2R61      1    LIG    C21     31      0.037     12.011   ;
    32     CG2R61      1    LIG    C22     32     -0.112     12.011   ;
    33     CG2R61      1    LIG    C23     33     -0.111     12.011   ;
    34     CG2R61      1    LIG    C24     34     -0.129     12.011   ;
    35      CG311      1    LIG    C25     35     -0.146     12.011   ;
    36      CG321      1    LIG    C26     36     -0.180     12.011   ;
    37      CG321      1    LIG    C27     37     -0.188     12.011   ;
    38      CG321      1    LIG    C28     38     -0.154     12.011   ;
    39      CG321      1    LIG    C29     39     -0.188     12.011   ;
    40      CG321      1    LIG    C30     40     -0.180     12.011   ;
    41       HGA2      1    LIG    HC2     41      0.090      1.008   ;
    42       HGA2      1    LIG    HC3     42      0.090      1.008   ;
    43       HGA1      1    LIG     HC     43      0.090      1.008   ;
    44       HGA1      1    LIG    HC1     44      0.090      1.008   ;
    45       HGA3      1    LIG    HC4     45      0.090      1.008   ;
    46       HGA3      1    LIG    HC5     46      0.090      1.008   ;
    47       HGA3      1    LIG    HC6     47      0.090      1.008   ;
    48       HGA2      1    LIG    HC7     48      0.090      1.008   ;
    49       HGA2      1    LIG    HC8     49      0.090      1.008   ;
    50      HGR62      1    LIG    HC9     50      0.174      1.008   ;
    51      HGR62      1    LIG   HC10     51      0.186      1.008   ;
    52      HGR62      1    LIG   HC11     52      0.174      1.008   ;
    53       HGA2      1    LIG   HC12     53      0.090      1.008   ;
    54       HGA2      1    LIG   HC13     54      0.090      1.008   ;
    55       HGA2      1    LIG   HC14     55      0.090      1.008   ;
    56       HGA2      1    LIG   HC15     56      0.090      1.008   ;
    57       HGA2      1    LIG   HC16     57      0.090      1.008   ;
    58       HGA2      1    LIG   HC17     58      0.090      1.008   ;
    59       HGA2      1    LIG   HC18     59      0.090      1.008   ;
    60       HGA2      1    LIG   HC19     60      0.090      1.008   ;
    61       HGA2      1    LIG   HC20     61      0.090      1.008   ;
    62       HGA2      1    LIG   HC21     62      0.090      1.008   ;
    63      HGR61      1    LIG   HC22     63      0.116      1.008   ;
    64      HGR61      1    LIG   HC23     64      0.116      1.008   ;
    65      HGR61      1    LIG   HC24     65      0.116      1.008   ;
    66      HGR61      1    LIG   HC25     66      0.116      1.008   ;
    67       HGA1      1    LIG   HC26     67      0.090      1.008   ;
    68       HGA2      1    LIG   HC27     68      0.090      1.008   ;
    69       HGA2      1    LIG   HC28     69      0.090      1.008   ;
    70       HGA2      1    LIG   HC29     70      0.090      1.008   ;
    71       HGA2      1    LIG   HC30     71      0.090      1.008   ;
    72       HGA2      1    LIG   HC31     72      0.090      1.008   ;
    73       HGA2      1    LIG   HC32     73      0.090      1.008   ;
    74       HGA2      1    LIG   HC33     74      0.090      1.008   ;
    75       HGA2      1    LIG   HC34     75      0.090      1.008   ;
    76       HGA2      1    LIG   HC35     76      0.090      1.008   ;
    77       HGA2      1    LIG   HC36     77      0.090      1.008   ;

[ bonds ]
;	ai	  aj funct			  c0			c1			  c2			c3
    1     3	 1 ;       NG3P2       HGP2
    1     2	 1 ;       NG3P2       HGP2
    1     4	 1 ;       NG3P2      CG324
    1    23	 1 ;       NG3P2      CG301
    4     5	 1 ;       CG324      CG311
    4    41	 1 ;       CG324       HGA2
    4    42	 1 ;       CG324       HGA2
    5     8	 1 ;       CG311      CG311
    5     6	 1 ;       CG311      OG311
    5    43	 1 ;       CG311       HGA1
    6     7	 1 ;       OG311       HGP1
    8     9	 1 ;       CG311      NG2S1
    8    14	 1 ;       CG311      CG321
    8    44	 1 ;       CG311       HGA1
    9    13	 1 ;       NG2S1       HGP1
    9    10	 1 ;       NG2S1      CG2O1
   10    12	 1 ;       CG2O1      CG331
   10    11	 1 ;       CG2O1      OG2D1
   12    45	 1 ;       CG331       HGA3
   12    46	 1 ;       CG331       HGA3
   12    47	 1 ;       CG331       HGA3
   14    15	 1 ;       CG321     CG2R61
   14    48	 1 ;       CG321       HGA2
   14    49	 1 ;       CG321       HGA2
   15    21	 1 ;      CG2R61     CG2R61
   15    16	 1 ;      CG2R61     CG2R61
   16    17	 1 ;      CG2R61     CG2R66
   16    50	 1 ;      CG2R61      HGR62
   17    19	 1 ;      CG2R66     CG2R61
   17    18	 1 ;      CG2R66       FGR1
   19    20	 1 ;      CG2R61     CG2R66
   19    51	 1 ;      CG2R61      HGR62
   20    22	 1 ;      CG2R66       FGR1
   20    21	 1 ;      CG2R66     CG2R61
   21    52	 1 ;      CG2R61      HGR62
   23    29	 1 ;       CG301     CG2R61
   23    24	 1 ;       CG301      CG321
   23    28	 1 ;       CG301      CG321
   24    25	 1 ;       CG321      CG321
   24    53	 1 ;       CG321       HGA2
   24    54	 1 ;       CG321       HGA2
   25    26	 1 ;       CG321      CG321
   25    55	 1 ;       CG321       HGA2
   25    56	 1 ;       CG321       HGA2
   26    27	 1 ;       CG321      CG321
   26    57	 1 ;       CG321       HGA2
   26    58	 1 ;       CG321       HGA2
   27    28	 1 ;       CG321      CG321
   27    59	 1 ;       CG321       HGA2
   27    60	 1 ;       CG321       HGA2
   28    61	 1 ;       CG321       HGA2
   28    62	 1 ;       CG321       HGA2
   29    34	 1 ;      CG2R61     CG2R61
   29    30	 1 ;      CG2R61     CG2R61
   30    31	 1 ;      CG2R61     CG2R61
   30    63	 1 ;      CG2R61      HGR61
   31    32	 1 ;      CG2R61     CG2R61
   31    35	 1 ;      CG2R61      CG311
   32    33	 1 ;      CG2R61     CG2R61
   32    64	 1 ;      CG2R61      HGR61
   33    34	 1 ;      CG2R61     CG2R61
   33    65	 1 ;      CG2R61      HGR61
   34    66	 1 ;      CG2R61      HGR61
   35    40	 1 ;       CG311      CG321
   35    36	 1 ;       CG311      CG321
   35    67	 1 ;       CG311       HGA1
   36    37	 1 ;       CG321      CG321
   36    68	 1 ;       CG321       HGA2
   36    69	 1 ;       CG321       HGA2
   37    38	 1 ;       CG321      CG321
   37    70	 1 ;       CG321       HGA2
   37    71	 1 ;       CG321       HGA2
   38    39	 1 ;       CG321      CG321
   38    72	 1 ;       CG321       HGA2
   38    73	 1 ;       CG321       HGA2
   39    40	 1 ;       CG321      CG321
   39    74	 1 ;       CG321       HGA2
   39    75	 1 ;       CG321       HGA2
   40    76	 1 ;       CG321       HGA2
   40    77	 1 ;       CG321       HGA2

[ pairs ]
;	ai	  aj funct			  c0			c1			  c2			c3
    1     8	 1
    1     6	 1
    1    43	 1
    1    34	 1
    1    30	 1
    1    25	 1
    1    53	 1
    1    54	 1
    1    27	 1
    1    61	 1
    1    62	 1
    2     5	 1
    2    41	 1
    2    42	 1
    2    29	 1
    2    24	 1
    2    28	 1
    3     5	 1
    3    41	 1
    3    42	 1
    3    29	 1
    3    24	 1
    3    28	 1
    4    29	 1
    4    24	 1
    4    28	 1
    4     9	 1
    4    14	 1
    4    44	 1
    4     7	 1
    5    23	 1
    5    13	 1
    5    10	 1
    5    15	 1
    5    48	 1
    5    49	 1
    6    41	 1
    6    42	 1
    6     9	 1
    6    14	 1
    6    44	 1
    7     8	 1
    7    43	 1
    8    41	 1
    8    42	 1
    8    12	 1
    8    11	 1
    8    21	 1
    8    16	 1
    9    43	 1
    9    15	 1
    9    48	 1
    9    49	 1
    9    45	 1
    9    46	 1
    9    47	 1
   10    14	 1
   10    44	 1
   11    13	 1
   11    45	 1
   11    46	 1
   11    47	 1
   12    13	 1
   13    14	 1
   13    44	 1
   14    43	 1
   14    20	 1
   14    52	 1
   14    17	 1
   14    50	 1
   15    44	 1
   15    19	 1
   15    18	 1
   15    22	 1
   16    48	 1
   16    49	 1
   16    20	 1
   16    52	 1
   16    51	 1
   17    21	 1
   17    22	 1
   18    50	 1
   18    20	 1
   18    51	 1
   19    50	 1
   19    52	 1
   21    48	 1
   21    49	 1
   21    50	 1
   21    51	 1
   22    51	 1
   22    52	 1
   23    41	 1
   23    42	 1
   23    26	 1
   23    55	 1
   23    56	 1
   23    59	 1
   23    60	 1
   23    33	 1
   23    66	 1
   23    31	 1
   23    63	 1
   24    34	 1
   24    30	 1
   24    27	 1
   24    61	 1
   24    62	 1
   24    57	 1
   24    58	 1
   25    29	 1
   25    28	 1
   25    59	 1
   25    60	 1
   26    53	 1
   26    54	 1
   26    61	 1
   26    62	 1
   27    29	 1
   27    55	 1
   27    56	 1
   28    34	 1
   28    30	 1
   28    53	 1
   28    54	 1
   28    57	 1
   28    58	 1
   29    53	 1
   29    54	 1
   29    61	 1
   29    62	 1
   29    32	 1
   29    35	 1
   29    65	 1
   30    33	 1
   30    66	 1
   30    64	 1
   30    40	 1
   30    36	 1
   30    67	 1
   31    34	 1
   31    65	 1
   31    39	 1
   31    76	 1
   31    77	 1
   31    37	 1
   31    68	 1
   31    69	 1
   32    63	 1
   32    40	 1
   32    36	 1
   32    67	 1
   32    66	 1
   33    35	 1
   34    63	 1
   34    64	 1
   35    63	 1
   35    64	 1
   35    38	 1
   35    70	 1
   35    71	 1
   35    74	 1
   35    75	 1
   36    39	 1
   36    76	 1
   36    77	 1
   36    72	 1
   36    73	 1
   37    40	 1
   37    67	 1
   37    74	 1
   37    75	 1
   38    68	 1
   38    69	 1
   38    76	 1
   38    77	 1
   39    67	 1
   39    70	 1
   39    71	 1
   40    68	 1
   40    69	 1
   40    72	 1
   40    73	 1
   41    43	 1
   42    43	 1
   43    44	 1
   44    48	 1
   44    49	 1
   53    55	 1
   53    56	 1
   54    55	 1
   54    56	 1
   55    57	 1
   55    58	 1
   56    57	 1
   56    58	 1
   57    59	 1
   57    60	 1
   58    59	 1
   58    60	 1
   59    61	 1
   59    62	 1
   60    61	 1
   60    62	 1
   64    65	 1
   65    66	 1
   67    76	 1
   67    77	 1
   67    68	 1
   67    69	 1
   68    70	 1
   68    71	 1
   69    70	 1
   69    71	 1
   70    72	 1
   70    73	 1
   71    72	 1
   71    73	 1
   72    74	 1
   72    75	 1
   73    74	 1
   73    75	 1
   74    76	 1
   74    77	 1
   75    76	 1
   75    77	 1

[ angles ]
;	ai	  aj	ak funct			c0			  c1			c2			  c3
    3     1     2	5 ;       HGP2      NG3P2       HGP2
    3     1     4	5 ;       HGP2      NG3P2      CG324
    3     1    23	5 ;       HGP2      NG3P2      CG301
    2     1     4	5 ;       HGP2      NG3P2      CG324
    2     1    23	5 ;       HGP2      NG3P2      CG301
    4     1    23	5 ;      CG324      NG3P2      CG301
    5     4     1	5 ;      CG311      CG324      NG3P2
    5     4    41	5 ;      CG311      CG324       HGA2
    5     4    42	5 ;      CG311      CG324       HGA2
    1     4    41	5 ;      NG3P2      CG324       HGA2
    1     4    42	5 ;      NG3P2      CG324       HGA2
   41     4    42	5 ;       HGA2      CG324       HGA2
    8     5     6	5 ;      CG311      CG311      OG311
    8     5     4	5 ;      CG311      CG311      CG324
    8     5    43	5 ;      CG311      CG311       HGA1
    6     5     4	5 ;      OG311      CG311      CG324
    6     5    43	5 ;      OG311      CG311       HGA1
    4     5    43	5 ;      CG324      CG311       HGA1
    5     6     7	5 ;      CG311      OG311       HGP1
    9     8    14	5 ;      NG2S1      CG311      CG321
    9     8     5	5 ;      NG2S1      CG311      CG311
    9     8    44	5 ;      NG2S1      CG311       HGA1
   14     8     5	5 ;      CG321      CG311      CG311
   14     8    44	5 ;      CG321      CG311       HGA1
    5     8    44	5 ;      CG311      CG311       HGA1
   13     9    10	5 ;       HGP1      NG2S1      CG2O1
   13     9     8	5 ;       HGP1      NG2S1      CG311
   10     9     8	5 ;      CG2O1      NG2S1      CG311
   12    10     9	5 ;      CG331      CG2O1      NG2S1
   12    10    11	5 ;      CG331      CG2O1      OG2D1
    9    10    11	5 ;      NG2S1      CG2O1      OG2D1
   10    12    45	5 ;      CG2O1      CG331       HGA3
   10    12    46	5 ;      CG2O1      CG331       HGA3
   10    12    47	5 ;      CG2O1      CG331       HGA3
   45    12    46	5 ;       HGA3      CG331       HGA3
   45    12    47	5 ;       HGA3      CG331       HGA3
   46    12    47	5 ;       HGA3      CG331       HGA3
   15    14     8	5 ;     CG2R61      CG321      CG311
   15    14    48	5 ;     CG2R61      CG321       HGA2
   15    14    49	5 ;     CG2R61      CG321       HGA2
    8    14    48	5 ;      CG311      CG321       HGA2
    8    14    49	5 ;      CG311      CG321       HGA2
   48    14    49	5 ;       HGA2      CG321       HGA2
   21    15    16	5 ;     CG2R61     CG2R61     CG2R61
   21    15    14	5 ;     CG2R61     CG2R61      CG321
   16    15    14	5 ;     CG2R61     CG2R61      CG321
   17    16    15	5 ;     CG2R66     CG2R61     CG2R61
   17    16    50	5 ;     CG2R66     CG2R61      HGR62
   15    16    50	5 ;     CG2R61     CG2R61      HGR62
   19    17    18	5 ;     CG2R61     CG2R66       FGR1
   19    17    16	5 ;     CG2R61     CG2R66     CG2R61
   18    17    16	5 ;       FGR1     CG2R66     CG2R61
   20    19    17	5 ;     CG2R66     CG2R61     CG2R66
   20    19    51	5 ;     CG2R66     CG2R61      HGR62
   17    19    51	5 ;     CG2R66     CG2R61      HGR62
   22    20    19	5 ;       FGR1     CG2R66     CG2R61
   22    20    21	5 ;       FGR1     CG2R66     CG2R61
   19    20    21	5 ;     CG2R61     CG2R66     CG2R61
   20    21    15	5 ;     CG2R66     CG2R61     CG2R61
   20    21    52	5 ;     CG2R66     CG2R61      HGR62
   15    21    52	5 ;     CG2R61     CG2R61      HGR62
   29    23     1	5 ;     CG2R61      CG301      NG3P2
   29    23    24	5 ;     CG2R61      CG301      CG321
   29    23    28	5 ;     CG2R61      CG301      CG321
    1    23    24	5 ;      NG3P2      CG301      CG321
    1    23    28	5 ;      NG3P2      CG301      CG321
   24    23    28	5 ;      CG321      CG301      CG321
   23    24    25	5 ;      CG301      CG321      CG321
   23    24    53	5 ;      CG301      CG321       HGA2
   23    24    54	5 ;      CG301      CG321       HGA2
   25    24    53	5 ;      CG321      CG321       HGA2
   25    24    54	5 ;      CG321      CG321       HGA2
   53    24    54	5 ;       HGA2      CG321       HGA2
   24    25    26	5 ;      CG321      CG321      CG321
   24    25    55	5 ;      CG321      CG321       HGA2
   24    25    56	5 ;      CG321      CG321       HGA2
   26    25    55	5 ;      CG321      CG321       HGA2
   26    25    56	5 ;      CG321      CG321       HGA2
   55    25    56	5 ;       HGA2      CG321       HGA2
   25    26    27	5 ;      CG321      CG321      CG321
   25    26    57	5 ;      CG321      CG321       HGA2
   25    26    58	5 ;      CG321      CG321       HGA2
   27    26    57	5 ;      CG321      CG321       HGA2
   27    26    58	5 ;      CG321      CG321       HGA2
   57    26    58	5 ;       HGA2      CG321       HGA2
   28    27    26	5 ;      CG321      CG321      CG321
   28    27    59	5 ;      CG321      CG321       HGA2
   28    27    60	5 ;      CG321      CG321       HGA2
   26    27    59	5 ;      CG321      CG321       HGA2
   26    27    60	5 ;      CG321      CG321       HGA2
   59    27    60	5 ;       HGA2      CG321       HGA2
   23    28    27	5 ;      CG301      CG321      CG321
   23    28    61	5 ;      CG301      CG321       HGA2
   23    28    62	5 ;      CG301      CG321       HGA2
   27    28    61	5 ;      CG321      CG321       HGA2
   27    28    62	5 ;      CG321      CG321       HGA2
   61    28    62	5 ;       HGA2      CG321       HGA2
   34    29    30	5 ;     CG2R61     CG2R61     CG2R61
   34    29    23	5 ;     CG2R61     CG2R61      CG301
   30    29    23	5 ;     CG2R61     CG2R61      CG301
   31    30    29	5 ;     CG2R61     CG2R61     CG2R61
   31    30    63	5 ;     CG2R61     CG2R61      HGR61
   29    30    63	5 ;     CG2R61     CG2R61      HGR61
   32    31    35	5 ;     CG2R61     CG2R61      CG311
   32    31    30	5 ;     CG2R61     CG2R61     CG2R61
   35    31    30	5 ;      CG311     CG2R61     CG2R61
   33    32    31	5 ;     CG2R61     CG2R61     CG2R61
   33    32    64	5 ;     CG2R61     CG2R61      HGR61
   31    32    64	5 ;     CG2R61     CG2R61      HGR61
   32    33    34	5 ;     CG2R61     CG2R61     CG2R61
   32    33    65	5 ;     CG2R61     CG2R61      HGR61
   34    33    65	5 ;     CG2R61     CG2R61      HGR61
   33    34    29	5 ;     CG2R61     CG2R61     CG2R61
   33    34    66	5 ;     CG2R61     CG2R61      HGR61
   29    34    66	5 ;     CG2R61     CG2R61      HGR61
   40    35    36	5 ;      CG321      CG311      CG321
   40    35    31	5 ;      CG321      CG311     CG2R61
   40    35    67	5 ;      CG321      CG311       HGA1
   36    35    31	5 ;      CG321      CG311     CG2R61
   36    35    67	5 ;      CG321      CG311       HGA1
   31    35    67	5 ;     CG2R61      CG311       HGA1
   37    36    35	5 ;      CG321      CG321      CG311
   37    36    68	5 ;      CG321      CG321       HGA2
   37    36    69	5 ;      CG321      CG321       HGA2
   35    36    68	5 ;      CG311      CG321       HGA2
   35    36    69	5 ;      CG311      CG321       HGA2
   68    36    69	5 ;       HGA2      CG321       HGA2
   38    37    36	5 ;      CG321      CG321      CG321
   38    37    70	5 ;      CG321      CG321       HGA2
   38    37    71	5 ;      CG321      CG321       HGA2
   36    37    70	5 ;      CG321      CG321       HGA2
   36    37    71	5 ;      CG321      CG321       HGA2
   70    37    71	5 ;       HGA2      CG321       HGA2
   39    38    37	5 ;      CG321      CG321      CG321
   39    38    72	5 ;      CG321      CG321       HGA2
   39    38    73	5 ;      CG321      CG321       HGA2
   37    38    72	5 ;      CG321      CG321       HGA2
   37    38    73	5 ;      CG321      CG321       HGA2
   72    38    73	5 ;       HGA2      CG321       HGA2
   38    39    40	5 ;      CG321      CG321      CG321
   38    39    74	5 ;      CG321      CG321       HGA2
   38    39    75	5 ;      CG321      CG321       HGA2
   40    39    74	5 ;      CG321      CG321       HGA2
   40    39    75	5 ;      CG321      CG321       HGA2
   74    39    75	5 ;       HGA2      CG321       HGA2
   39    40    35	5 ;      CG321      CG321      CG311
   39    40    76	5 ;      CG321      CG321       HGA2
   39    40    77	5 ;      CG321      CG321       HGA2
   35    40    76	5 ;      CG311      CG321       HGA2
   35    40    77	5 ;      CG311      CG321       HGA2
   76    40    77	5 ;       HGA2      CG321       HGA2

[ dihedrals ]
;	ai	  aj	ak	  al funct			  c0			c1			  c2			c3			  c4			c5
    3     1     4     5	 9 ;       HGP2      NG3P2      CG324      CG311
    3     1     4    41	 9 ;       HGP2      NG3P2      CG324       HGA2
    3     1     4    42	 9 ;       HGP2      NG3P2      CG324       HGA2
    2     1     4     5	 9 ;       HGP2      NG3P2      CG324      CG311
    2     1     4    41	 9 ;       HGP2      NG3P2      CG324       HGA2
    2     1     4    42	 9 ;       HGP2      NG3P2      CG324       HGA2
   23     1     4     5	 9 ;      CG301      NG3P2      CG324      CG311
   23     1     4    41	 9 ;      CG301      NG3P2      CG324       HGA2
   23     1     4    42	 9 ;      CG301      NG3P2      CG324       HGA2
    3     1    23    29	 9 ;       HGP2      NG3P2      CG301     CG2R61
    3     1    23    24	 9 ;       HGP2      NG3P2      CG301      CG321
    3     1    23    28	 9 ;       HGP2      NG3P2      CG301      CG321
    2     1    23    29	 9 ;       HGP2      NG3P2      CG301     CG2R61
    2     1    23    24	 9 ;       HGP2      NG3P2      CG301      CG321
    2     1    23    28	 9 ;       HGP2      NG3P2      CG301      CG321
    4     1    23    29	 9 ;      CG324      NG3P2      CG301     CG2R61
    4     1    23    24	 9 ;      CG324      NG3P2      CG301      CG321
    4     1    23    28	 9 ;      CG324      NG3P2      CG301      CG321
    1     4     5     8	 9 ;      NG3P2      CG324      CG311      CG311
    1     4     5     6	 9 ;      NG3P2      CG324      CG311      OG311
    1     4     5    43	 9 ;      NG3P2      CG324      CG311       HGA1
   41     4     5     8	 9 ;       HGA2      CG324      CG311      CG311
   41     4     5     6	 9 ;       HGA2      CG324      CG311      OG311
   41     4     5    43	 9 ;       HGA2      CG324      CG311       HGA1
   42     4     5     8	 9 ;       HGA2      CG324      CG311      CG311
   42     4     5     6	 9 ;       HGA2      CG324      CG311      OG311
   42     4     5    43	 9 ;       HGA2      CG324      CG311       HGA1
    6     5     8     9	 9 ;      OG311      CG311      CG311      NG2S1
    6     5     8    14	 9 ;      OG311      CG311      CG311      CG321
    6     5     8    44	 9 ;      OG311      CG311      CG311       HGA1
    4     5     8     9	 9 ;      CG324      CG311      CG311      NG2S1
    4     5     8    14	 9 ;      CG324      CG311      CG311      CG321
    4     5     8    44	 9 ;      CG324      CG311      CG311       HGA1
   43     5     8     9	 9 ;       HGA1      CG311      CG311      NG2S1
   43     5     8    14	 9 ;       HGA1      CG311      CG311      CG321
   43     5     8    44	 9 ;       HGA1      CG311      CG311       HGA1
    8     5     6     7	 9 ;      CG311      CG311      OG311       HGP1
    4     5     6     7	 9 ;      CG324      CG311      OG311       HGP1
   43     5     6     7	 9 ;       HGA1      CG311      OG311       HGP1
   14     8     9    13	 9 ;      CG321      CG311      NG2S1       HGP1
   14     8     9    10	 9 ;      CG321      CG311      NG2S1      CG2O1
    5     8     9    13	 9 ;      CG311      CG311      NG2S1       HGP1
    5     8     9    10	 9 ;      CG311      CG311      NG2S1      CG2O1
   44     8     9    13	 9 ;       HGA1      CG311      NG2S1       HGP1
   44     8     9    10	 9 ;       HGA1      CG311      NG2S1      CG2O1
    9     8    14    15	 9 ;      NG2S1      CG311      CG321     CG2R61
    9     8    14    48	 9 ;      NG2S1      CG311      CG321       HGA2
    9     8    14    49	 9 ;      NG2S1      CG311      CG321       HGA2
    5     8    14    15	 9 ;      CG311      CG311      CG321     CG2R61
    5     8    14    48	 9 ;      CG311      CG311      CG321       HGA2
    5     8    14    49	 9 ;      CG311      CG311      CG321       HGA2
   44     8    14    15	 9 ;       HGA1      CG311      CG321     CG2R61
   44     8    14    48	 9 ;       HGA1      CG311      CG321       HGA2
   44     8    14    49	 9 ;       HGA1      CG311      CG321       HGA2
   13     9    10    12	 9 ;       HGP1      NG2S1      CG2O1      CG331
   13     9    10    11	 9 ;       HGP1      NG2S1      CG2O1      OG2D1
    8     9    10    12	 9 ;      CG311      NG2S1      CG2O1      CG331
    8     9    10    11	 9 ;      CG311      NG2S1      CG2O1      OG2D1
    9    10    12    45	 9 ;      NG2S1      CG2O1      CG331       HGA3
    9    10    12    46	 9 ;      NG2S1      CG2O1      CG331       HGA3
    9    10    12    47	 9 ;      NG2S1      CG2O1      CG331       HGA3
   11    10    12    45	 9 ;      OG2D1      CG2O1      CG331       HGA3
   11    10    12    46	 9 ;      OG2D1      CG2O1      CG331       HGA3
   11    10    12    47	 9 ;      OG2D1      CG2O1      CG331       HGA3
    8    14    15    21	 9 ;      CG311      CG321     CG2R61     CG2R61
    8    14    15    16	 9 ;      CG311      CG321     CG2R61     CG2R61
   48    14    15    21	 9 ;       HGA2      CG321     CG2R61     CG2R61
   48    14    15    16	 9 ;       HGA2      CG321     CG2R61     CG2R61
   49    14    15    21	 9 ;       HGA2      CG321     CG2R61     CG2R61
   49    14    15    16	 9 ;       HGA2      CG321     CG2R61     CG2R61
   16    15    21    20	 9 ;     CG2R61     CG2R61     CG2R61     CG2R66
   16    15    21    52	 9 ;     CG2R61     CG2R61     CG2R61      HGR62
   14    15    21    20	 9 ;      CG321     CG2R61     CG2R61     CG2R66
   14    15    21    52	 9 ;      CG321     CG2R61     CG2R61      HGR62
   21    15    16    17	 9 ;     CG2R61     CG2R61     CG2R61     CG2R66
   21    15    16    50	 9 ;     CG2R61     CG2R61     CG2R61      HGR62
   14    15    16    17	 9 ;      CG321     CG2R61     CG2R61     CG2R66
   14    15    16    50	 9 ;      CG321     CG2R61     CG2R61      HGR62
   15    16    17    19	 9 ;     CG2R61     CG2R61     CG2R66     CG2R61
   15    16    17    18	 9 ;     CG2R61     CG2R61     CG2R66       FGR1
   50    16    17    19	 9 ;      HGR62     CG2R61     CG2R66     CG2R61
   50    16    17    18	 9 ;      HGR62     CG2R61     CG2R66       FGR1
   18    17    19    20	 9 ;       FGR1     CG2R66     CG2R61     CG2R66
   18    17    19    51	 9 ;       FGR1     CG2R66     CG2R61      HGR62
   16    17    19    20	 9 ;     CG2R61     CG2R66     CG2R61     CG2R66
   16    17    19    51	 9 ;     CG2R61     CG2R66     CG2R61      HGR62
   17    19    20    22	 9 ;     CG2R66     CG2R61     CG2R66       FGR1
   17    19    20    21	 9 ;     CG2R66     CG2R61     CG2R66     CG2R61
   51    19    20    22	 9 ;      HGR62     CG2R61     CG2R66       FGR1
   51    19    20    21	 9 ;      HGR62     CG2R61     CG2R66     CG2R61
   22    20    21    15	 9 ;       FGR1     CG2R66     CG2R61     CG2R61
   22    20    21    52	 9 ;       FGR1     CG2R66     CG2R61      HGR62
   19    20    21    15	 9 ;     CG2R61     CG2R66     CG2R61     CG2R61
   19    20    21    52	 9 ;     CG2R61     CG2R66     CG2R61      HGR62
    1    23    29    34	 9 ;      NG3P2      CG301     CG2R61     CG2R61
    1    23    29    30	 9 ;      NG3P2      CG301     CG2R61     CG2R61
   24    23    29    34	 9 ;      CG321      CG301     CG2R61     CG2R61
   24    23    29    30	 9 ;      CG321      CG301     CG2R61     CG2R61
   28    23    29    34	 9 ;      CG321      CG301     CG2R61     CG2R61
   28    23    29    30	 9 ;      CG321      CG301     CG2R61     CG2R61
   29    23    24    25	 9 ;     CG2R61      CG301      CG321      CG321
   29    23    24    53	 9 ;     CG2R61      CG301      CG321       HGA2
   29    23    24    54	 9 ;     CG2R61      CG301      CG321       HGA2
    1    23    24    25	 9 ;      NG3P2      CG301      CG321      CG321
    1    23    24    53	 9 ;      NG3P2      CG301      CG321       HGA2
    1    23    24    54	 9 ;      NG3P2      CG301      CG321       HGA2
   28    23    24    25	 9 ;      CG321      CG301      CG321      CG321
   28    23    24    53	 9 ;      CG321      CG301      CG321       HGA2
   28    23    24    54	 9 ;      CG321      CG301      CG321       HGA2
   29    23    28    27	 9 ;     CG2R61      CG301      CG321      CG321
   29    23    28    61	 9 ;     CG2R61      CG301      CG321       HGA2
   29    23    28    62	 9 ;     CG2R61      CG301      CG321       HGA2
    1    23    28    27	 9 ;      NG3P2      CG301      CG321      CG321
    1    23    28    61	 9 ;      NG3P2      CG301      CG321       HGA2
    1    23    28    62	 9 ;      NG3P2      CG301      CG321       HGA2
   24    23    28    27	 9 ;      CG321      CG301      CG321      CG321
   24    23    28    61	 9 ;      CG321      CG301      CG321       HGA2
   24    23    28    62	 9 ;      CG321      CG301      CG321       HGA2
   23    24    25    26	 9 ;      CG301      CG321      CG321      CG321
   23    24    25    55	 9 ;      CG301      CG321      CG321       HGA2
   23    24    25    56	 9 ;      CG301      CG321      CG321       HGA2
   53    24    25    26	 9 ;       HGA2      CG321      CG321      CG321
   53    24    25    55	 9 ;       HGA2      CG321      CG321       HGA2
   53    24    25    56	 9 ;       HGA2      CG321      CG321       HGA2
   54    24    25    26	 9 ;       HGA2      CG321      CG321      CG321
   54    24    25    55	 9 ;       HGA2      CG321      CG321       HGA2
   54    24    25    56	 9 ;       HGA2      CG321      CG321       HGA2
   24    25    26    27	 9 ;      CG321      CG321      CG321      CG321
   24    25    26    57	 9 ;      CG321      CG321      CG321       HGA2
   24    25    26    58	 9 ;      CG321      CG321      CG321       HGA2
   55    25    26    27	 9 ;       HGA2      CG321      CG321      CG321
   55    25    26    57	 9 ;       HGA2      CG321      CG321       HGA2
   55    25    26    58	 9 ;       HGA2      CG321      CG321       HGA2
   56    25    26    27	 9 ;       HGA2      CG321      CG321      CG321
   56    25    26    57	 9 ;       HGA2      CG321      CG321       HGA2
   56    25    26    58	 9 ;       HGA2      CG321      CG321       HGA2
   25    26    27    28	 9 ;      CG321      CG321      CG321      CG321
   25    26    27    59	 9 ;      CG321      CG321      CG321       HGA2
   25    26    27    60	 9 ;      CG321      CG321      CG321       HGA2
   57    26    27    28	 9 ;       HGA2      CG321      CG321      CG321
   57    26    27    59	 9 ;       HGA2      CG321      CG321       HGA2
   57    26    27    60	 9 ;       HGA2      CG321      CG321       HGA2
   58    26    27    28	 9 ;       HGA2      CG321      CG321      CG321
   58    26    27    59	 9 ;       HGA2      CG321      CG321       HGA2
   58    26    27    60	 9 ;       HGA2      CG321      CG321       HGA2
   26    27    28    23	 9 ;      CG321      CG321      CG321      CG301
   26    27    28    61	 9 ;      CG321      CG321      CG321       HGA2
   26    27    28    62	 9 ;      CG321      CG321      CG321       HGA2
   59    27    28    23	 9 ;       HGA2      CG321      CG321      CG301
   59    27    28    61	 9 ;       HGA2      CG321      CG321       HGA2
   59    27    28    62	 9 ;       HGA2      CG321      CG321       HGA2
   60    27    28    23	 9 ;       HGA2      CG321      CG321      CG301
   60    27    28    61	 9 ;       HGA2      CG321      CG321       HGA2
   60    27    28    62	 9 ;       HGA2      CG321      CG321       HGA2
   30    29    34    33	 9 ;     CG2R61     CG2R61     CG2R61     CG2R61
   30    29    34    66	 9 ;     CG2R61     CG2R61     CG2R61      HGR61
   23    29    34    33	 9 ;      CG301     CG2R61     CG2R61     CG2R61
   23    29    34    66	 9 ;      CG301     CG2R61     CG2R61      HGR61
   34    29    30    31	 9 ;     CG2R61     CG2R61     CG2R61     CG2R61
   34    29    30    63	 9 ;     CG2R61     CG2R61     CG2R61      HGR61
   23    29    30    31	 9 ;      CG301     CG2R61     CG2R61     CG2R61
   23    29    30    63	 9 ;      CG301     CG2R61     CG2R61      HGR61
   29    30    31    32	 9 ;     CG2R61     CG2R61     CG2R61     CG2R61
   29    30    31    35	 9 ;     CG2R61     CG2R61     CG2R61      CG311
   63    30    31    32	 9 ;      HGR61     CG2R61     CG2R61     CG2R61
   63    30    31    35	 9 ;      HGR61     CG2R61     CG2R61      CG311
   35    31    32    33	 9 ;      CG311     CG2R61     CG2R61     CG2R61
   35    31    32    64	 9 ;      CG311     CG2R61     CG2R61      HGR61
   30    31    32    33	 9 ;     CG2R61     CG2R61     CG2R61     CG2R61
   30    31    32    64	 9 ;     CG2R61     CG2R61     CG2R61      HGR61
   32    31    35    40	 9 ;     CG2R61     CG2R61      CG311      CG321
   32    31    35    36	 9 ;     CG2R61     CG2R61      CG311      CG321
   32    31    35    67	 9 ;     CG2R61     CG2R61      CG311       HGA1
   30    31    35    40	 9 ;     CG2R61     CG2R61      CG311      CG321
   30    31    35    36	 9 ;     CG2R61     CG2R61      CG311      CG321
   30    31    35    67	 9 ;     CG2R61     CG2R61      CG311       HGA1
   31    32    33    34	 9 ;     CG2R61     CG2R61     CG2R61     CG2R61
   31    32    33    65	 9 ;     CG2R61     CG2R61     CG2R61      HGR61
   64    32    33    34	 9 ;      HGR61     CG2R61     CG2R61     CG2R61
   64    32    33    65	 9 ;      HGR61     CG2R61     CG2R61      HGR61
   32    33    34    29	 9 ;     CG2R61     CG2R61     CG2R61     CG2R61
   32    33    34    66	 9 ;     CG2R61     CG2R61     CG2R61      HGR61
   65    33    34    29	 9 ;      HGR61     CG2R61     CG2R61     CG2R61
   65    33    34    66	 9 ;      HGR61     CG2R61     CG2R61      HGR61
   36    35    40    39	 9 ;      CG321      CG311      CG321      CG321
   36    35    40    76	 9 ;      CG321      CG311      CG321       HGA2
   36    35    40    77	 9 ;      CG321      CG311      CG321       HGA2
   31    35    40    39	 9 ;     CG2R61      CG311      CG321      CG321
   31    35    40    76	 9 ;     CG2R61      CG311      CG321       HGA2
   31    35    40    77	 9 ;     CG2R61      CG311      CG321       HGA2
   67    35    40    39	 9 ;       HGA1      CG311      CG321      CG321
   67    35    40    76	 9 ;       HGA1      CG311      CG321       HGA2
   67    35    40    77	 9 ;       HGA1      CG311      CG321       HGA2
   40    35    36    37	 9 ;      CG321      CG311      CG321      CG321
   40    35    36    68	 9 ;      CG321      CG311      CG321       HGA2
   40    35    36    69	 9 ;      CG321      CG311      CG321       HGA2
   31    35    36    37	 9 ;     CG2R61      CG311      CG321      CG321
   31    35    36    68	 9 ;     CG2R61      CG311      CG321       HGA2
   31    35    36    69	 9 ;     CG2R61      CG311      CG321       HGA2
   67    35    36    37	 9 ;       HGA1      CG311      CG321      CG321
   67    35    36    68	 9 ;       HGA1      CG311      CG321       HGA2
   67    35    36    69	 9 ;       HGA1      CG311      CG321       HGA2
   35    36    37    38	 9 ;      CG311      CG321      CG321      CG321
   35    36    37    70	 9 ;      CG311      CG321      CG321       HGA2
   35    36    37    71	 9 ;      CG311      CG321      CG321       HGA2
   68    36    37    38	 9 ;       HGA2      CG321      CG321      CG321
   68    36    37    70	 9 ;       HGA2      CG321      CG321       HGA2
   68    36    37    71	 9 ;       HGA2      CG321      CG321       HGA2
   69    36    37    38	 9 ;       HGA2      CG321      CG321      CG321
   69    36    37    70	 9 ;       HGA2      CG321      CG321       HGA2
   69    36    37    71	 9 ;       HGA2      CG321      CG321       HGA2
   36    37    38    39	 9 ;      CG321      CG321      CG321      CG321
   36    37    38    72	 9 ;      CG321      CG321      CG321       HGA2
   36    37    38    73	 9 ;      CG321      CG321      CG321       HGA2
   70    37    38    39	 9 ;       HGA2      CG321      CG321      CG321
   70    37    38    72	 9 ;       HGA2      CG321      CG321       HGA2
   70    37    38    73	 9 ;       HGA2      CG321      CG321       HGA2
   71    37    38    39	 9 ;       HGA2      CG321      CG321      CG321
   71    37    38    72	 9 ;       HGA2      CG321      CG321       HGA2
   71    37    38    73	 9 ;       HGA2      CG321      CG321       HGA2
   37    38    39    40	 9 ;      CG321      CG321      CG321      CG321
   37    38    39    74	 9 ;      CG321      CG321      CG321       HGA2
   37    38    39    75	 9 ;      CG321      CG321      CG321       HGA2
   72    38    39    40	 9 ;       HGA2      CG321      CG321      CG321
   72    38    39    74	 9 ;       HGA2      CG321      CG321       HGA2
   72    38    39    75	 9 ;       HGA2      CG321      CG321       HGA2
   73    38    39    40	 9 ;       HGA2      CG321      CG321      CG321
   73    38    39    74	 9 ;       HGA2      CG321      CG321       HGA2
   73    38    39    75	 9 ;       HGA2      CG321      CG321       HGA2
   38    39    40    35	 9 ;      CG321      CG321      CG321      CG311
   38    39    40    76	 9 ;      CG321      CG321      CG321       HGA2
   38    39    40    77	 9 ;      CG321      CG321      CG321       HGA2
   74    39    40    35	 9 ;       HGA2      CG321      CG321      CG311
   74    39    40    76	 9 ;       HGA2      CG321      CG321       HGA2
   74    39    40    77	 9 ;       HGA2      CG321      CG321       HGA2
   75    39    40    35	 9 ;       HGA2      CG321      CG321      CG311
   75    39    40    76	 9 ;       HGA2      CG321      CG321       HGA2
   75    39    40    77	 9 ;       HGA2      CG321      CG321       HGA2

[ dihedrals ]
;	ai	  aj	ak	  al funct			  c0			c1			  c2			c3
   10    12     9    11	 2

