; Created by cgenff_charmm2gmx.py

[ moleculetype ]
; Name			   nrexcl
LIG				 3

[ atoms ]
;	 nr		  type	resnr residue  atom   cgnr	   charge		mass  typeB    chargeB		massB
; residue	 1 LIG rtp LIG q	qsum
     1      CG311      1    LIG     C1      1      0.346     12.011   ;
     2      NG311      1    LIG     N1      2     -0.864     14.007   ;
     3     HGPAM1      1    LIG     H1      3      0.350      1.008   ;
     4      CG301      1    LIG     C2      4      0.375     12.011   ;
     5      CG321      1    LIG     C3      5     -0.226     12.011   ;
     6     CG2R61      1    LIG     C4      6      0.051     12.011   ;
     7     CG2R61      1    LIG     C5      7     -0.060     12.011   ;
     8     CG2R61      1    LIG     C6      8     -0.108     12.011   ;
     9     CG2R61      1    LIG     C7      9     -0.114     12.011   ;
    10     CG2R61      1    LIG     C8     10     -0.112     12.011   ;
    11     CG2R61      1    LIG     C9     11     -0.121     12.011   ;
    12      CG331      1    LIG    C10     12     -0.295     12.011   ;
    13      CG331      1    LIG    C11     13     -0.295     12.011   ;
    14      NG311      1    LIG     N2     14     -0.801     14.007   ;
    15     HGPAM1      1    LIG     H2     15      0.362      1.008   ;
    16      CG311      1    LIG     CA     16      0.166     12.011   ;
    17      CG2O2      1    LIG    C12     17      0.776     12.011   ;
    18      OG311      1    LIG    OXT     18     -0.496     15.999   ;
    19      OG2D1      1    LIG      O     19     -0.544     15.999   ;
    20      CG321      1    LIG     CB     20     -0.254     12.011   ;
    21     CG2R61      1    LIG     CG     21      0.012     12.011   ;
    22     CG2R61      1    LIG    CD1     22     -0.123     12.011   ;
    23     CG2R61      1    LIG    CE1     23     -0.112     12.011   ;
    24     CG2R61      1    LIG     CZ     24     -0.116     12.011   ;
    25     CG2R61      1    LIG    CE2     25     -0.112     12.011   ;
    26     CG2R61      1    LIG    CD2     26     -0.123     12.011   ;
    27       HGA1      1    LIG     H3     27      0.090      1.008   ;
    28       HGA2      1    LIG     H4     28      0.090      1.008   ;
    29       HGA2      1    LIG     H5     29      0.090      1.008   ;
    30      HGR61      1    LIG     H6     30      0.116      1.008   ;
    31      HGR61      1    LIG     H7     31      0.116      1.008   ;
    32      HGR61      1    LIG     H8     32      0.116      1.008   ;
    33      HGR61      1    LIG     H9     33      0.116      1.008   ;
    34       HGA3      1    LIG    H10     34      0.090      1.008   ;
    35       HGA3      1    LIG    H11     35      0.090      1.008   ;
    36       HGA3      1    LIG    H12     36      0.090      1.008   ;
    37       HGA3      1    LIG    H13     37      0.090      1.008   ;
    38       HGA3      1    LIG    H14     38      0.090      1.008   ;
    39       HGA3      1    LIG    H15     39      0.090      1.008   ;
    40       HGA1      1    LIG     HA     40      0.090      1.008   ;
    41       HGP1      1    LIG    HXT     41      0.314      1.008   ;
    42       HGA2      1    LIG    HB1     42      0.090      1.008   ;
    43       HGA2      1    LIG    HB2     43      0.090      1.008   ;
    44      HGR61      1    LIG    HD1     44      0.116      1.008   ;
    45      HGR61      1    LIG    HE1     45      0.116      1.008   ;
    46      HGR61      1    LIG     HZ     46      0.116      1.008   ;
    47      HGR61      1    LIG    HE2     47      0.116      1.008   ;
    48      HGR61      1    LIG    HD2     48      0.116      1.008   ;

[ bonds ]
;	ai	  aj funct			  c0			c1			  c2			c3
    1    14	 1 ;       CG311      NG311
    1     7	 1 ;       CG311     CG2R61
    1     2	 1 ;       CG311      NG311
    1    27	 1 ;       CG311       HGA1
    2     3	 1 ;       NG311     HGPAM1
    2     4	 1 ;       NG311      CG301
    4     5	 1 ;       CG301      CG321
    4    13	 1 ;       CG301      CG331
    4    12	 1 ;       CG301      CG331
    5     6	 1 ;       CG321     CG2R61
    5    28	 1 ;       CG321       HGA2
    5    29	 1 ;       CG321       HGA2
    6     7	 1 ;      CG2R61     CG2R61
    6    11	 1 ;      CG2R61     CG2R61
    7     8	 1 ;      CG2R61     CG2R61
    8     9	 1 ;      CG2R61     CG2R61
    8    30	 1 ;      CG2R61      HGR61
    9    10	 1 ;      CG2R61     CG2R61
    9    31	 1 ;      CG2R61      HGR61
   10    11	 1 ;      CG2R61     CG2R61
   10    32	 1 ;      CG2R61      HGR61
   11    33	 1 ;      CG2R61      HGR61
   12    34	 1 ;       CG331       HGA3
   12    35	 1 ;       CG331       HGA3
   12    36	 1 ;       CG331       HGA3
   13    37	 1 ;       CG331       HGA3
   13    38	 1 ;       CG331       HGA3
   13    39	 1 ;       CG331       HGA3
   14    15	 1 ;       NG311     HGPAM1
   14    16	 1 ;       NG311      CG311
   16    20	 1 ;       CG311      CG321
   16    17	 1 ;       CG311      CG2O2
   16    40	 1 ;       CG311       HGA1
   17    19	 1 ;       CG2O2      OG2D1
   17    18	 1 ;       CG2O2      OG311
   18    41	 1 ;       OG311       HGP1
   20    21	 1 ;       CG321     CG2R61
   20    42	 1 ;       CG321       HGA2
   20    43	 1 ;       CG321       HGA2
   21    22	 1 ;      CG2R61     CG2R61
   21    26	 1 ;      CG2R61     CG2R61
   22    23	 1 ;      CG2R61     CG2R61
   22    44	 1 ;      CG2R61      HGR61
   23    24	 1 ;      CG2R61     CG2R61
   23    45	 1 ;      CG2R61      HGR61
   24    25	 1 ;      CG2R61     CG2R61
   24    46	 1 ;      CG2R61      HGR61
   25    26	 1 ;      CG2R61     CG2R61
   25    47	 1 ;      CG2R61      HGR61
   26    48	 1 ;      CG2R61      HGR61

[ pairs ]
;	ai	  aj funct			  c0			c1			  c2			c3
    1     5	 1
    1    13	 1
    1    12	 1
    1    11	 1
    1     9	 1
    1    30	 1
    1    20	 1
    1    17	 1
    1    40	 1
    2    15	 1
    2    16	 1
    2     8	 1
    2     6	 1
    2    28	 1
    2    29	 1
    2    37	 1
    2    38	 1
    2    39	 1
    2    34	 1
    2    35	 1
    2    36	 1
    3    14	 1
    3     7	 1
    3    27	 1
    3     5	 1
    3    13	 1
    3    12	 1
    4    14	 1
    4     7	 1
    4    27	 1
    4    11	 1
    5    37	 1
    5    38	 1
    5    39	 1
    5    34	 1
    5    35	 1
    5    36	 1
    5     8	 1
    5    10	 1
    5    33	 1
    6    14	 1
    6    27	 1
    6    13	 1
    6    12	 1
    6     9	 1
    6    30	 1
    6    32	 1
    7    15	 1
    7    16	 1
    7    28	 1
    7    29	 1
    7    10	 1
    7    33	 1
    7    31	 1
    8    14	 1
    8    27	 1
    8    11	 1
    8    32	 1
    9    33	 1
   10    30	 1
   11    28	 1
   11    29	 1
   11    31	 1
   12    28	 1
   12    29	 1
   12    37	 1
   12    38	 1
   12    39	 1
   13    28	 1
   13    29	 1
   13    34	 1
   13    35	 1
   13    36	 1
   14    21	 1
   14    42	 1
   14    43	 1
   14    19	 1
   14    18	 1
   15    27	 1
   15    20	 1
   15    17	 1
   15    40	 1
   16    27	 1
   16    41	 1
   16    22	 1
   16    26	 1
   17    21	 1
   17    42	 1
   17    43	 1
   18    20	 1
   18    40	 1
   19    20	 1
   19    40	 1
   19    41	 1
   20    23	 1
   20    44	 1
   20    25	 1
   20    48	 1
   21    40	 1
   21    24	 1
   21    45	 1
   21    47	 1
   22    42	 1
   22    43	 1
   22    25	 1
   22    48	 1
   22    46	 1
   23    26	 1
   23    47	 1
   24    44	 1
   24    48	 1
   25    45	 1
   26    42	 1
   26    43	 1
   26    44	 1
   26    46	 1
   30    31	 1
   31    32	 1
   32    33	 1
   40    42	 1
   40    43	 1
   44    45	 1
   45    46	 1
   46    47	 1
   47    48	 1

[ angles ]
;	ai	  aj	ak funct			c0			  c1			c2			  c3
   14     1     7	5 ;      NG311      CG311     CG2R61
   14     1     2	5 ;      NG311      CG311      NG311
   14     1    27	5 ;      NG311      CG311       HGA1
    7     1     2	5 ;     CG2R61      CG311      NG311
    7     1    27	5 ;     CG2R61      CG311       HGA1
    2     1    27	5 ;      NG311      CG311       HGA1
    1     2     3	5 ;      CG311      NG311     HGPAM1
    1     2     4	5 ;      CG311      NG311      CG301
    3     2     4	5 ;     HGPAM1      NG311      CG301
    2     4     5	5 ;      NG311      CG301      CG321
    2     4    13	5 ;      NG311      CG301      CG331
    2     4    12	5 ;      NG311      CG301      CG331
    5     4    13	5 ;      CG321      CG301      CG331
    5     4    12	5 ;      CG321      CG301      CG331
   13     4    12	5 ;      CG331      CG301      CG331
    6     5     4	5 ;     CG2R61      CG321      CG301
    6     5    28	5 ;     CG2R61      CG321       HGA2
    6     5    29	5 ;     CG2R61      CG321       HGA2
    4     5    28	5 ;      CG301      CG321       HGA2
    4     5    29	5 ;      CG301      CG321       HGA2
   28     5    29	5 ;       HGA2      CG321       HGA2
    7     6    11	5 ;     CG2R61     CG2R61     CG2R61
    7     6     5	5 ;     CG2R61     CG2R61      CG321
   11     6     5	5 ;     CG2R61     CG2R61      CG321
    8     7     1	5 ;     CG2R61     CG2R61      CG311
    8     7     6	5 ;     CG2R61     CG2R61     CG2R61
    1     7     6	5 ;      CG311     CG2R61     CG2R61
    9     8     7	5 ;     CG2R61     CG2R61     CG2R61
    9     8    30	5 ;     CG2R61     CG2R61      HGR61
    7     8    30	5 ;     CG2R61     CG2R61      HGR61
    8     9    10	5 ;     CG2R61     CG2R61     CG2R61
    8     9    31	5 ;     CG2R61     CG2R61      HGR61
   10     9    31	5 ;     CG2R61     CG2R61      HGR61
    9    10    11	5 ;     CG2R61     CG2R61     CG2R61
    9    10    32	5 ;     CG2R61     CG2R61      HGR61
   11    10    32	5 ;     CG2R61     CG2R61      HGR61
   10    11     6	5 ;     CG2R61     CG2R61     CG2R61
   10    11    33	5 ;     CG2R61     CG2R61      HGR61
    6    11    33	5 ;     CG2R61     CG2R61      HGR61
    4    12    34	5 ;      CG301      CG331       HGA3
    4    12    35	5 ;      CG301      CG331       HGA3
    4    12    36	5 ;      CG301      CG331       HGA3
   34    12    35	5 ;       HGA3      CG331       HGA3
   34    12    36	5 ;       HGA3      CG331       HGA3
   35    12    36	5 ;       HGA3      CG331       HGA3
    4    13    37	5 ;      CG301      CG331       HGA3
    4    13    38	5 ;      CG301      CG331       HGA3
    4    13    39	5 ;      CG301      CG331       HGA3
   37    13    38	5 ;       HGA3      CG331       HGA3
   37    13    39	5 ;       HGA3      CG331       HGA3
   38    13    39	5 ;       HGA3      CG331       HGA3
   15    14    16	5 ;     HGPAM1      NG311      CG311
   15    14     1	5 ;     HGPAM1      NG311      CG311
   16    14     1	5 ;      CG311      NG311      CG311
   20    16    14	5 ;      CG321      CG311      NG311
   20    16    17	5 ;      CG321      CG311      CG2O2
   20    16    40	5 ;      CG321      CG311       HGA1
   14    16    17	5 ;      NG311      CG311      CG2O2
   14    16    40	5 ;      NG311      CG311       HGA1
   17    16    40	5 ;      CG2O2      CG311       HGA1
   19    17    16	5 ;      OG2D1      CG2O2      CG311
   19    17    18	5 ;      OG2D1      CG2O2      OG311
   16    17    18	5 ;      CG311      CG2O2      OG311
   17    18    41	5 ;      CG2O2      OG311       HGP1
   21    20    16	5 ;     CG2R61      CG321      CG311
   21    20    42	5 ;     CG2R61      CG321       HGA2
   21    20    43	5 ;     CG2R61      CG321       HGA2
   16    20    42	5 ;      CG311      CG321       HGA2
   16    20    43	5 ;      CG311      CG321       HGA2
   42    20    43	5 ;       HGA2      CG321       HGA2
   20    21    22	5 ;      CG321     CG2R61     CG2R61
   20    21    26	5 ;      CG321     CG2R61     CG2R61
   22    21    26	5 ;     CG2R61     CG2R61     CG2R61
   21    22    23	5 ;     CG2R61     CG2R61     CG2R61
   21    22    44	5 ;     CG2R61     CG2R61      HGR61
   23    22    44	5 ;     CG2R61     CG2R61      HGR61
   22    23    24	5 ;     CG2R61     CG2R61     CG2R61
   22    23    45	5 ;     CG2R61     CG2R61      HGR61
   24    23    45	5 ;     CG2R61     CG2R61      HGR61
   23    24    25	5 ;     CG2R61     CG2R61     CG2R61
   23    24    46	5 ;     CG2R61     CG2R61      HGR61
   25    24    46	5 ;     CG2R61     CG2R61      HGR61
   26    25    24	5 ;     CG2R61     CG2R61     CG2R61
   26    25    47	5 ;     CG2R61     CG2R61      HGR61
   24    25    47	5 ;     CG2R61     CG2R61      HGR61
   21    26    25	5 ;     CG2R61     CG2R61     CG2R61
   21    26    48	5 ;     CG2R61     CG2R61      HGR61
   25    26    48	5 ;     CG2R61     CG2R61      HGR61

[ dihedrals ]
;	ai	  aj	ak	  al funct			  c0			c1			  c2			c3			  c4			c5
    7     1    14    15	 9 ;     CG2R61      CG311      NG311     HGPAM1
    7     1    14    16	 9 ;     CG2R61      CG311      NG311      CG311
    2     1    14    15	 9 ;      NG311      CG311      NG311     HGPAM1
    2     1    14    16	 9 ;      NG311      CG311      NG311      CG311
   27     1    14    15	 9 ;       HGA1      CG311      NG311     HGPAM1
   27     1    14    16	 9 ;       HGA1      CG311      NG311      CG311
   14     1     7     8	 9 ;      NG311      CG311     CG2R61     CG2R61
   14     1     7     6	 9 ;      NG311      CG311     CG2R61     CG2R61
    2     1     7     8	 9 ;      NG311      CG311     CG2R61     CG2R61
    2     1     7     6	 9 ;      NG311      CG311     CG2R61     CG2R61
   27     1     7     8	 9 ;       HGA1      CG311     CG2R61     CG2R61
   27     1     7     6	 9 ;       HGA1      CG311     CG2R61     CG2R61
   14     1     2     3	 9 ;      NG311      CG311      NG311     HGPAM1
   14     1     2     4	 9 ;      NG311      CG311      NG311      CG301
    7     1     2     3	 9 ;     CG2R61      CG311      NG311     HGPAM1
    7     1     2     4	 9 ;     CG2R61      CG311      NG311      CG301
   27     1     2     3	 9 ;       HGA1      CG311      NG311     HGPAM1
   27     1     2     4	 9 ;       HGA1      CG311      NG311      CG301
    1     2     4     5	 9 ;      CG311      NG311      CG301      CG321
    1     2     4    13	 9 ;      CG311      NG311      CG301      CG331
    1     2     4    12	 9 ;      CG311      NG311      CG301      CG331
    3     2     4     5	 9 ;     HGPAM1      NG311      CG301      CG321
    3     2     4    13	 9 ;     HGPAM1      NG311      CG301      CG331
    3     2     4    12	 9 ;     HGPAM1      NG311      CG301      CG331
    2     4     5     6	 9 ;      NG311      CG301      CG321     CG2R61
    2     4     5    28	 9 ;      NG311      CG301      CG321       HGA2
    2     4     5    29	 9 ;      NG311      CG301      CG321       HGA2
   13     4     5     6	 9 ;      CG331      CG301      CG321     CG2R61
   13     4     5    28	 9 ;      CG331      CG301      CG321       HGA2
   13     4     5    29	 9 ;      CG331      CG301      CG321       HGA2
   12     4     5     6	 9 ;      CG331      CG301      CG321     CG2R61
   12     4     5    28	 9 ;      CG331      CG301      CG321       HGA2
   12     4     5    29	 9 ;      CG331      CG301      CG321       HGA2
    2     4    13    37	 9 ;      NG311      CG301      CG331       HGA3
    2     4    13    38	 9 ;      NG311      CG301      CG331       HGA3
    2     4    13    39	 9 ;      NG311      CG301      CG331       HGA3
    5     4    13    37	 9 ;      CG321      CG301      CG331       HGA3
    5     4    13    38	 9 ;      CG321      CG301      CG331       HGA3
    5     4    13    39	 9 ;      CG321      CG301      CG331       HGA3
   12     4    13    37	 9 ;      CG331      CG301      CG331       HGA3
   12     4    13    38	 9 ;      CG331      CG301      CG331       HGA3
   12     4    13    39	 9 ;      CG331      CG301      CG331       HGA3
    2     4    12    34	 9 ;      NG311      CG301      CG331       HGA3
    2     4    12    35	 9 ;      NG311      CG301      CG331       HGA3
    2     4    12    36	 9 ;      NG311      CG301      CG331       HGA3
    5     4    12    34	 9 ;      CG321      CG301      CG331       HGA3
    5     4    12    35	 9 ;      CG321      CG301      CG331       HGA3
    5     4    12    36	 9 ;      CG321      CG301      CG331       HGA3
   13     4    12    34	 9 ;      CG331      CG301      CG331       HGA3
   13     4    12    35	 9 ;      CG331      CG301      CG331       HGA3
   13     4    12    36	 9 ;      CG331      CG301      CG331       HGA3
    4     5     6     7	 9 ;      CG301      CG321     CG2R61     CG2R61
    4     5     6    11	 9 ;      CG301      CG321     CG2R61     CG2R61
   28     5     6     7	 9 ;       HGA2      CG321     CG2R61     CG2R61
   28     5     6    11	 9 ;       HGA2      CG321     CG2R61     CG2R61
   29     5     6     7	 9 ;       HGA2      CG321     CG2R61     CG2R61
   29     5     6    11	 9 ;       HGA2      CG321     CG2R61     CG2R61
   11     6     7     8	 9 ;     CG2R61     CG2R61     CG2R61     CG2R61
   11     6     7     1	 9 ;     CG2R61     CG2R61     CG2R61      CG311
    5     6     7     8	 9 ;      CG321     CG2R61     CG2R61     CG2R61
    5     6     7     1	 9 ;      CG321     CG2R61     CG2R61      CG311
    7     6    11    10	 9 ;     CG2R61     CG2R61     CG2R61     CG2R61
    7     6    11    33	 9 ;     CG2R61     CG2R61     CG2R61      HGR61
    5     6    11    10	 9 ;      CG321     CG2R61     CG2R61     CG2R61
    5     6    11    33	 9 ;      CG321     CG2R61     CG2R61      HGR61
    1     7     8     9	 9 ;      CG311     CG2R61     CG2R61     CG2R61
    1     7     8    30	 9 ;      CG311     CG2R61     CG2R61      HGR61
    6     7     8     9	 9 ;     CG2R61     CG2R61     CG2R61     CG2R61
    6     7     8    30	 9 ;     CG2R61     CG2R61     CG2R61      HGR61
    7     8     9    10	 9 ;     CG2R61     CG2R61     CG2R61     CG2R61
    7     8     9    31	 9 ;     CG2R61     CG2R61     CG2R61      HGR61
   30     8     9    10	 9 ;      HGR61     CG2R61     CG2R61     CG2R61
   30     8     9    31	 9 ;      HGR61     CG2R61     CG2R61      HGR61
    8     9    10    11	 9 ;     CG2R61     CG2R61     CG2R61     CG2R61
    8     9    10    32	 9 ;     CG2R61     CG2R61     CG2R61      HGR61
   31     9    10    11	 9 ;      HGR61     CG2R61     CG2R61     CG2R61
   31     9    10    32	 9 ;      HGR61     CG2R61     CG2R61      HGR61
    9    10    11     6	 9 ;     CG2R61     CG2R61     CG2R61     CG2R61
    9    10    11    33	 9 ;     CG2R61     CG2R61     CG2R61      HGR61
   32    10    11     6	 9 ;      HGR61     CG2R61     CG2R61     CG2R61
   32    10    11    33	 9 ;      HGR61     CG2R61     CG2R61      HGR61
   15    14    16    20	 9 ;     HGPAM1      NG311      CG311      CG321
   15    14    16    17	 9 ;     HGPAM1      NG311      CG311      CG2O2
   15    14    16    40	 9 ;     HGPAM1      NG311      CG311       HGA1
    1    14    16    20	 9 ;      CG311      NG311      CG311      CG321
    1    14    16    17	 9 ;      CG311      NG311      CG311      CG2O2
    1    14    16    40	 9 ;      CG311      NG311      CG311       HGA1
   14    16    20    21	 9 ;      NG311      CG311      CG321     CG2R61
   14    16    20    42	 9 ;      NG311      CG311      CG321       HGA2
   14    16    20    43	 9 ;      NG311      CG311      CG321       HGA2
   17    16    20    21	 9 ;      CG2O2      CG311      CG321     CG2R61
   17    16    20    42	 9 ;      CG2O2      CG311      CG321       HGA2
   17    16    20    43	 9 ;      CG2O2      CG311      CG321       HGA2
   40    16    20    21	 9 ;       HGA1      CG311      CG321     CG2R61
   40    16    20    42	 9 ;       HGA1      CG311      CG321       HGA2
   40    16    20    43	 9 ;       HGA1      CG311      CG321       HGA2
   20    16    17    19	 9 ;      CG321      CG311      CG2O2      OG2D1
   20    16    17    18	 9 ;      CG321      CG311      CG2O2      OG311
   14    16    17    19	 9 ;      NG311      CG311      CG2O2      OG2D1
   14    16    17    18	 9 ;      NG311      CG311      CG2O2      OG311
   40    16    17    19	 9 ;       HGA1      CG311      CG2O2      OG2D1
   40    16    17    18	 9 ;       HGA1      CG311      CG2O2      OG311
   19    17    18    41	 9 ;      OG2D1      CG2O2      OG311       HGP1
   16    17    18    41	 9 ;      CG311      CG2O2      OG311       HGP1
   16    20    21    22	 9 ;      CG311      CG321     CG2R61     CG2R61
   16    20    21    26	 9 ;      CG311      CG321     CG2R61     CG2R61
   42    20    21    22	 9 ;       HGA2      CG321     CG2R61     CG2R61
   42    20    21    26	 9 ;       HGA2      CG321     CG2R61     CG2R61
   43    20    21    22	 9 ;       HGA2      CG321     CG2R61     CG2R61
   43    20    21    26	 9 ;       HGA2      CG321     CG2R61     CG2R61
   20    21    22    23	 9 ;      CG321     CG2R61     CG2R61     CG2R61
   20    21    22    44	 9 ;      CG321     CG2R61     CG2R61      HGR61
   26    21    22    23	 9 ;     CG2R61     CG2R61     CG2R61     CG2R61
   26    21    22    44	 9 ;     CG2R61     CG2R61     CG2R61      HGR61
   20    21    26    25	 9 ;      CG321     CG2R61     CG2R61     CG2R61
   20    21    26    48	 9 ;      CG321     CG2R61     CG2R61      HGR61
   22    21    26    25	 9 ;     CG2R61     CG2R61     CG2R61     CG2R61
   22    21    26    48	 9 ;     CG2R61     CG2R61     CG2R61      HGR61
   21    22    23    24	 9 ;     CG2R61     CG2R61     CG2R61     CG2R61
   21    22    23    45	 9 ;     CG2R61     CG2R61     CG2R61      HGR61
   44    22    23    24	 9 ;      HGR61     CG2R61     CG2R61     CG2R61
   44    22    23    45	 9 ;      HGR61     CG2R61     CG2R61      HGR61
   22    23    24    25	 9 ;     CG2R61     CG2R61     CG2R61     CG2R61
   22    23    24    46	 9 ;     CG2R61     CG2R61     CG2R61      HGR61
   45    23    24    25	 9 ;      HGR61     CG2R61     CG2R61     CG2R61
   45    23    24    46	 9 ;      HGR61     CG2R61     CG2R61      HGR61
   23    24    25    26	 9 ;     CG2R61     CG2R61     CG2R61     CG2R61
   23    24    25    47	 9 ;     CG2R61     CG2R61     CG2R61      HGR61
   46    24    25    26	 9 ;      HGR61     CG2R61     CG2R61     CG2R61
   46    24    25    47	 9 ;      HGR61     CG2R61     CG2R61      HGR61
   24    25    26    21	 9 ;     CG2R61     CG2R61     CG2R61     CG2R61
   24    25    26    48	 9 ;     CG2R61     CG2R61     CG2R61      HGR61
   47    25    26    21	 9 ;      HGR61     CG2R61     CG2R61     CG2R61
   47    25    26    48	 9 ;      HGR61     CG2R61     CG2R61      HGR61

[ dihedrals ]
;	ai	  aj	ak	  al funct			  c0			c1			  c2			c3
   17    16    19    18	 2

