Green Red Orange Magenta Azure Cyan Skyblue
   48
    1LIG     C1    1  -1.441   0.490  -1.588
    1LIG     N1    2  -1.478   0.424  -1.484
    1LIG     H1    3  -1.444   0.328  -1.475
    1LIG     C2    4  -1.562   0.475  -1.377
    1LIG     C3    5  -1.615   0.618  -1.396
    1LIG     C4    6  -1.567   0.693  -1.517
    1LIG     C5    7  -1.483   0.632  -1.610
    1LIG     C6    8  -1.443   0.705  -1.723
    1LIG     C7    9  -1.486   0.837  -1.742
    1LIG     C8   10  -1.569   0.897  -1.649
    1LIG     C9   11  -1.609   0.825  -1.536
    1LIG    C10   12  -1.480   0.467  -1.247
    1LIG    C11   13  -1.680   0.377  -1.367
    1LIG     N2   14  -1.362   0.427  -1.681
    1LIG     H2   15  -1.402   0.390  -1.768
    1LIG     CA   16  -1.241   0.347  -1.648
    1LIG    C12   17  -1.124   0.450  -1.642
    1LIG    OXT   18  -1.032   0.421  -1.559
    1LIG      O   19  -1.128   0.546  -1.724
    1LIG     CB   20  -1.214   0.248  -1.763
    1LIG     CG   21  -1.133   0.126  -1.726
    1LIG    CD1   22  -0.995   0.122  -1.752
    1LIG    CE1   23  -0.920   0.009  -1.715
    1LIG     CZ   24  -0.982  -0.099  -1.654
    1LIG    CE2   25  -1.120  -0.096  -1.630
    1LIG    CD2   26  -1.194   0.016  -1.666
    1LIG     H3   27  -1.481   0.571  -1.530
    1LIG     H4   28  -1.722   0.613  -1.402
    1LIG     H5   29  -1.579   0.674  -1.312
    1LIG     H6   30  -1.380   0.661  -1.793
    1LIG     H7   31  -1.456   0.889  -1.826
    1LIG     H8   32  -1.600   0.994  -1.662
    1LIG     H9   33  -1.671   0.870  -1.467
    1LIG    H10   34  -1.398   0.535  -1.253
    1LIG    H11   35  -1.443   0.367  -1.235
    1LIG    H12   36  -1.542   0.492  -1.164
    1LIG    H13   37  -1.738   0.382  -1.457
    1LIG    H14   38  -1.742   0.403  -1.283
    1LIG    H15   39  -1.643   0.278  -1.355
    1LIG     HA   40  -1.253   0.293  -1.557
    1LIG    HXT   41  -1.042   0.346  -1.503
    1LIG    HB1   42  -1.308   0.215  -1.800
    1LIG    HB2   43  -1.155   0.302  -1.834
    1LIG    HD1   44  -0.948   0.201  -1.798
    1LIG    HE1   45  -0.819   0.007  -1.734
    1LIG     HZ   46  -0.927  -0.182  -1.627
    1LIG    HE2   47  -1.166  -0.177  -1.585
    1LIG    HD2   48  -1.296   0.018  -1.647
   0.00000   0.00000   0.00000
