GROwing Monsters And Cloning Shrimps
   97
    1LIG     C1    1  -1.995   0.312  -1.182
    1LIG     N1    2  -1.921   0.407  -1.276
    1LIG     C2    3  -1.782   0.412  -1.281
    1LIG     O1    4  -1.718   0.342  -1.201
    1LIG     H1    5  -1.974   0.447  -1.354
    1LIG     C3    6  -1.705   0.501  -1.378
    1LIG     C4    7  -1.597   0.437  -1.447
    1LIG     C5    8  -1.516   0.507  -1.538
    1LIG     C6    9  -1.545   0.640  -1.564
    1LIG     C7   10  -1.642   0.709  -1.492
    1LIG     C8   11  -1.725   0.639  -1.401
    1LIG     C9   12  -1.400   0.454  -1.614
    1LIG     O2   13  -1.381   0.495  -1.729
    1LIG     N2   14  -1.309   0.366  -1.563
    1LIG     H2   15  -1.238   0.345  -1.633
    1LIG    C10   16  -1.260   0.349  -1.426
    1LIG    C11   17  -1.178   0.471  -1.386
    1LIG    C12   18  -1.188   0.214  -1.422
    1LIG    C13   19  -1.111   0.170  -1.314
    1LIG    C14   20  -1.041   0.049  -1.322
    1LIG    C15   21  -1.046  -0.029  -1.438
    1LIG    C16   22  -1.123   0.014  -1.546
    1LIG    C17   23  -1.193   0.134  -1.537
    1LIG     N3   24  -1.641   0.853  -1.505
    1LIG    C18   25  -1.529   0.908  -1.589
    1LIG      S   26  -1.790   0.934  -1.525
    1LIG     O3   27  -1.836   0.970  -1.392
    1LIG     O4   28  -1.874   0.856  -1.613
    1LIG    C19   29  -1.748   1.087  -1.607
    1LIG    C20   30  -2.140   0.365  -1.150
    1LIG     O5   31  -2.141   0.507  -1.173
    1LIG     H3   32  -2.065   0.543  -1.124
    1LIG    C21   33  -2.262   0.311  -1.230
    1LIG    C22   34  -2.283   0.353  -1.378
    1LIG    C23   35  -2.279   0.232  -1.474
    1LIG     N4   36  -2.164   0.243  -1.573
    1LIG     H4   37  -2.100   0.163  -1.556
    1LIG     H5   38  -2.197   0.231  -1.669
    1LIG    C24   39  -2.088   0.372  -1.561
    1LIG    C25   40  -1.956   0.380  -1.632
    1LIG    C26   41  -1.870   0.269  -1.641
    1LIG    C27   42  -1.756   0.272  -1.722
    1LIG    C28   43  -1.725   0.386  -1.797
    1LIG    C29   44  -1.808   0.498  -1.788
    1LIG    C30   45  -1.922   0.495  -1.707
    1LIG     O6   46  -2.414   0.411  -1.400
    1LIG    C31   47  -2.494   0.430  -1.284
    1LIG    C32   48  -2.001   0.168  -1.238
    1LIG     O7   49  -1.964   0.073  -1.138
    1LIG    C33   50  -2.004  -0.057  -1.152
    1LIG    C34   51  -1.945  -0.146  -1.061
    1LIG    C35   52  -1.971  -0.282  -1.071
    1LIG     F1   53  -1.911  -0.366  -0.986
    1LIG    C36   54  -2.057  -0.332  -1.168
    1LIG    C37   55  -2.121  -0.242  -1.252
    1LIG     F2   56  -2.207  -0.288  -1.343
    1LIG    C38   57  -2.096  -0.105  -1.244
    1LIG     HC   58  -1.940   0.309  -1.089
    1LIG    HC1   59  -1.578   0.332  -1.429
    1LIG    HC2   60  -1.491   0.691  -1.643
    1LIG    HC3   61  -1.804   0.692  -1.349
    1LIG    HC4   62  -1.347   0.343  -1.360
    1LIG    HC5   63  -1.141   0.459  -1.284
    1LIG    HC6   64  -1.093   0.482  -1.454
    1LIG    HC7   65  -1.240   0.561  -1.392
    1LIG    HC8   66  -1.105   0.229  -1.224
    1LIG    HC9   67  -0.982   0.015  -1.238
    1LIG   HC10   68  -0.991  -0.121  -1.443
    1LIG   HC11   69  -1.127  -0.046  -1.635
    1LIG   HC12   70  -1.253   0.166  -1.622
    1LIG   HC13   71  -1.443   0.840  -1.583
    1LIG   HC14   72  -1.500   1.006  -1.551
    1LIG   HC15   73  -1.562   0.916  -1.692
    1LIG   HC16   74  -1.835   1.152  -1.612
    1LIG   HC17   75  -1.668   1.138  -1.552
    1LIG   HC18   76  -1.714   1.066  -1.709
    1LIG   HC19   77  -2.159   0.348  -1.043
    1LIG   HC20   78  -2.352   0.342  -1.176
    1LIG   HC21   79  -2.258   0.202  -1.227
    1LIG   HC22   80  -2.206   0.424  -1.406
    1LIG   HC23   81  -2.267   0.140  -1.416
    1LIG   HC24   82  -2.373   0.227  -1.530
    1LIG   HC25   83  -2.152   0.451  -1.601
    1LIG   HC26   84  -2.072   0.392  -1.455
    1LIG   HC27   85  -1.893   0.180  -1.584
    1LIG   HC28   86  -1.691   0.186  -1.728
    1LIG   HC29   87  -1.638   0.387  -1.860
    1LIG   HC30   88  -1.784   0.586  -1.845
    1LIG   HC31   89  -1.985   0.583  -1.701
    1LIG   HC32   90  -2.587   0.480  -1.311
    1LIG   HC33   91  -2.517   0.333  -1.239
    1LIG   HC34   92  -2.440   0.492  -1.212
    1LIG   HC35   93  -1.933   0.159  -1.323
    1LIG   HC36   94  -2.103   0.146  -1.272
    1LIG   HC37   95  -1.880  -0.108  -0.984
    1LIG   HC38   96  -2.073  -0.438  -1.177
    1LIG   HC39   97  -2.149  -0.037  -1.309
   0.00000   0.00000   0.00000
