GROningen MAchine for Chemical Simulation
   74
    1LIG     C1    1  -1.908   0.339  -1.836
    1LIG     C2    2  -1.770   0.343  -1.817
    1LIG     C3    3  -1.715   0.312  -1.692
    1LIG     C4    4  -1.801   0.273  -1.589
    1LIG     C5    5  -1.940   0.276  -1.605
    1LIG     C6    6  -1.994   0.308  -1.730
    1LIG     C7    7  -1.574   0.333  -1.666
    1LIG     O1    8  -1.491   0.337  -1.775
    1LIG     N1    9  -1.361   0.338  -1.727
    1LIG     C8   10  -1.377   0.347  -1.594
    1LIG    HN1   11  -1.274   0.333  -1.780
    1LIG     N2   12  -1.507   0.336  -1.552
    1LIG    HN2   13  -1.543   0.331  -1.457
    1LIG     C9   14  -1.259   0.350  -1.501
    1LIG    C10   15  -1.212   0.493  -1.471
    1LIG     N3   16  -1.303   0.294  -1.365
    1LIG     H1   17  -1.356   0.365  -1.313
    1LIG     H2   18  -1.361   0.209  -1.374
    1LIG     H3   19  -1.220   0.271  -1.308
    1LIG    C11   20  -1.143   0.259  -1.551
    1LIG    C12   21  -1.128   0.125  -1.482
    1LIG    C13   22  -1.036   0.108  -1.378
    1LIG    C14   23  -1.023  -0.015  -1.314
    1LIG    C15   24  -1.103  -0.123  -1.352
    1LIG    C16   25  -1.195  -0.107  -1.455
    1LIG    C17   26  -1.208   0.016  -1.519
    1LIG     N4   27  -1.960   0.374  -1.964
    1LIG    C18   28  -1.875   0.355  -2.082
    1LIG      S   29  -2.122   0.419  -1.979
    1LIG     O2   30  -2.149   0.520  -1.880
    1LIG     O3   31  -2.203   0.299  -1.987
    1LIG    C19   32  -2.123   0.497  -2.139
    1LIG    C20   33  -2.022   0.265  -1.482
    1LIG     O4   34  -2.001   0.343  -1.390
    1LIG     N5   35  -2.119   0.167  -1.477
    1LIG     H4   36  -2.118   0.092  -1.545
    1LIG    C21   37  -2.203   0.151  -1.360
    1LIG    C22   38  -2.345   0.200  -1.389
    1LIG    C23   39  -2.197   0.007  -1.311
    1LIG    C24   40  -2.210  -0.098  -1.405
    1LIG    C25   41  -2.204  -0.231  -1.364
    1LIG    C26   42  -2.185  -0.261  -1.230
    1LIG      F   43  -2.179  -0.388  -1.190
    1LIG    C27   44  -2.175  -0.159  -1.135
    1LIG    C28   45  -2.182  -0.026  -1.176
    1LIG     HC   46  -1.704   0.369  -1.899
    1LIG    HC1   47  -1.760   0.239  -1.495
    1LIG    HC2   48  -2.101   0.309  -1.745
    1LIG    HC3   49  -1.297   0.552  -1.436
    1LIG    HC4   50  -1.135   0.491  -1.394
    1LIG    HC5   51  -1.172   0.537  -1.562
    1LIG    HC6   52  -1.159   0.240  -1.657
    1LIG    HC7   53  -1.049   0.314  -1.540
    1LIG    HC8   54  -0.973   0.191  -1.348
    1LIG    HC9   55  -0.951  -0.027  -1.234
    1LIG   HC10   56  -1.093  -0.218  -1.302
    1LIG   HC11   57  -1.257  -0.191  -1.485
    1LIG   HC12   58  -1.280   0.027  -1.599
    1LIG   HC13   59  -1.784   0.302  -2.053
    1LIG   HC14   60  -1.929   0.297  -2.157
    1LIG   HC15   61  -1.848   0.452  -2.123
    1LIG   HC16   62  -2.218   0.548  -2.154
    1LIG   HC17   63  -2.042   0.569  -2.145
    1LIG   HC18   64  -2.109   0.421  -2.217
    1LIG   HC19   65  -2.162   0.214  -1.281
    1LIG   HC20   66  -2.407   0.187  -1.300
    1LIG   HC21   67  -2.387   0.142  -1.471
    1LIG   HC22   68  -2.342   0.305  -1.416
    1LIG   HC23   69  -2.224  -0.074  -1.509
    1LIG   HC24   70  -2.213  -0.310  -1.437
    1LIG   HC25   71  -2.162  -0.184  -1.031
    1LIG   HC26   72  -2.175   0.053  -1.102
    1LIG    H34   73  -1.586   0.442  -1.666
    1LIG    H35   74  -1.383   0.456  -1.598
   0.00000   0.00000   0.00000
