; Created by cgenff_charmm2gmx.py

[ moleculetype ]
; Name			   nrexcl
LIG				 3

[ atoms ]
;	 nr		  type	resnr residue  atom   cgnr	   charge		mass  typeB    chargeB		massB
; residue	 1 LIG rtp LIG q	qsum
     1     CG2R61      1    LIG     C1      1      0.140     12.011   ;
     2     CG2R61      1    LIG     C2      2     -0.178     12.011   ;
     3     CG2R61      1    LIG     C3      3      0.362     12.011   ;
     4     CG2R61      1    LIG     C4      4     -0.118     12.011   ;
     5     CG2R61      1    LIG     C5      5     -0.099     12.011   ;
     6     CG2R61      1    LIG     C6      6     -0.064     12.011   ;
     7     CG3C51      1    LIG     C7      7      0.001     12.011   ;
     8     OG3C51      1    LIG     O1      8     -0.359     15.999   ;
     9     NG3C51      1    LIG     N1      9     -0.380     14.007   ;
    10     CG3C51      1    LIG     C8     10      0.160     12.011   ;
    11       HGP1      1    LIG    HN1     11      0.270      1.008   ;
    12     NG3C51      1    LIG     N2     12     -0.441     14.007   ;
    13       HGP1      1    LIG    HN2     13      0.230      1.008   ;
    14      CG301      1    LIG     C9     14      0.568     12.011   ;
    15      CG331      1    LIG    C10     15     -0.212     12.011   ;
    16      NG3P3      1    LIG     N3     16     -0.629     14.007   ;
    17       HGP2      1    LIG     H1     17      0.348      1.008   ;
    18       HGP2      1    LIG     H2     18      0.348      1.008   ;
    19       HGP2      1    LIG     H3     19      0.348      1.008   ;
    20      CG321      1    LIG    C11     20     -0.153     12.011   ;
    21     CG2R61      1    LIG    C12     21     -0.057     12.011   ;
    22     CG2R61      1    LIG    C13     22     -0.123     12.011   ;
    23     CG2R61      1    LIG    C14     23     -0.112     12.011   ;
    24     CG2R61      1    LIG    C15     24     -0.116     12.011   ;
    25     CG2R61      1    LIG    C16     25     -0.112     12.011   ;
    26     CG2R61      1    LIG    C17     26     -0.123     12.011   ;
    27      NG301      1    LIG     N4     27     -0.228     14.007   ;
    28      CG331      1    LIG    C18     28     -0.103     12.011   ;
    29      SG3O2      1    LIG      S     29      0.397     32.060   ;
    30      OG2P1      1    LIG     O2     30     -0.388     15.999   ;
    31      OG2P1      1    LIG     O3     31     -0.388     15.999   ;
    32      CG331      1    LIG    C19     32      0.036     12.011   ;
    33      CG2O1      1    LIG    C20     33      0.320     12.011   ;
    34      OG2D1      1    LIG     O4     34     -0.463     15.999   ;
    35      NG2S1      1    LIG     N5     35     -0.366     14.007   ;
    36       HGP1      1    LIG     H4     36      0.314      1.008   ;
    37      CG311      1    LIG    C21     37      0.138     12.011   ;
    38      CG331      1    LIG    C22     38     -0.265     12.011   ;
    39     CG2R61      1    LIG    C23     39     -0.081     12.011   ;
    40     CG2R61      1    LIG    C24     40     -0.121     12.011   ;
    41     CG2R61      1    LIG    C25     41     -0.105     12.011   ;
    42     CG2R66      1    LIG    C26     42      0.107     12.011   ;
    43       FGR1      1    LIG      F     43     -0.211     18.998   ;
    44     CG2R61      1    LIG    C27     44     -0.105     12.011   ;
    45     CG2R61      1    LIG    C28     45     -0.121     12.011   ;
    46      HGR61      1    LIG     HC     46      0.116      1.008   ;
    47      HGR61      1    LIG    HC1     47      0.116      1.008   ;
    48      HGR61      1    LIG    HC2     48      0.116      1.008   ;
    49       HGA3      1    LIG    HC3     49      0.090      1.008   ;
    50       HGA3      1    LIG    HC4     50      0.090      1.008   ;
    51       HGA3      1    LIG    HC5     51      0.090      1.008   ;
    52       HGA2      1    LIG    HC6     52      0.090      1.008   ;
    53       HGA2      1    LIG    HC7     53      0.090      1.008   ;
    54      HGR61      1    LIG    HC8     54      0.116      1.008   ;
    55      HGR61      1    LIG    HC9     55      0.116      1.008   ;
    56      HGR61      1    LIG   HC10     56      0.116      1.008   ;
    57      HGR61      1    LIG   HC11     57      0.116      1.008   ;
    58      HGR61      1    LIG   HC12     58      0.116      1.008   ;
    59       HGA3      1    LIG   HC13     59      0.090      1.008   ;
    60       HGA3      1    LIG   HC14     60      0.090      1.008   ;
    61       HGA3      1    LIG   HC15     61      0.090      1.008   ;
    62       HGA3      1    LIG   HC16     62      0.090      1.008   ;
    63       HGA3      1    LIG   HC17     63      0.090      1.008   ;
    64       HGA3      1    LIG   HC18     64      0.090      1.008   ;
    65       HGA1      1    LIG   HC19     65      0.090      1.008   ;
    66       HGA3      1    LIG   HC20     66      0.090      1.008   ;
    67       HGA3      1    LIG   HC21     67      0.090      1.008   ;
    68       HGA3      1    LIG   HC22     68      0.090      1.008   ;
    69      HGR61      1    LIG   HC23     69      0.116      1.008   ;
    70      HGR62      1    LIG   HC24     70      0.179      1.008   ;
    71      HGR62      1    LIG   HC25     71      0.179      1.008   ;
    72      HGR61      1    LIG   HC26     72      0.116      1.008   ;
    73       HGA1      1    LIG    H34     73      0.116      1.008   ;
    74       HGA1      1    LIG    H35     74      0.150      1.008   ;

[ bonds ]
;	ai	  aj funct			  c0			c1			  c2			c3
    1     2	 1 ;      CG2R61     CG2R61
    1    27	 1 ;      CG2R61      NG301
    1     6	 1 ;      CG2R61     CG2R61
    2     3	 1 ;      CG2R61     CG2R61
    2    46	 1 ;      CG2R61      HGR61
    3     7	 1 ;      CG2R61     CG3C51
    3     4	 1 ;      CG2R61     CG2R61
    4     5	 1 ;      CG2R61     CG2R61
    4    47	 1 ;      CG2R61      HGR61
    5     6	 1 ;      CG2R61     CG2R61
    5    33	 1 ;      CG2R61      CG2O1
    6    48	 1 ;      CG2R61      HGR61
    7     8	 1 ;      CG3C51     OG3C51
    7    12	 1 ;      CG3C51     NG3C51
    7    73	 1 ;      CG3C51       HGA1
    8     9	 1 ;      OG3C51     NG3C51
    9    11	 1 ;      NG3C51       HGP1
    9    10	 1 ;      NG3C51     CG3C51
   10    14	 1 ;      CG3C51      CG301
   10    12	 1 ;      CG3C51     NG3C51
   10    74	 1 ;      CG3C51       HGA1
   12    13	 1 ;      NG3C51       HGP1
   14    20	 1 ;       CG301      CG321
   14    15	 1 ;       CG301      CG331
   14    16	 1 ;       CG301      NG3P3
   15    49	 1 ;       CG331       HGA3
   15    50	 1 ;       CG331       HGA3
   15    51	 1 ;       CG331       HGA3
   16    19	 1 ;       NG3P3       HGP2
   16    17	 1 ;       NG3P3       HGP2
   16    18	 1 ;       NG3P3       HGP2
   20    21	 1 ;       CG321     CG2R61
   20    52	 1 ;       CG321       HGA2
   20    53	 1 ;       CG321       HGA2
   21    22	 1 ;      CG2R61     CG2R61
   21    26	 1 ;      CG2R61     CG2R61
   22    23	 1 ;      CG2R61     CG2R61
   22    54	 1 ;      CG2R61      HGR61
   23    24	 1 ;      CG2R61     CG2R61
   23    55	 1 ;      CG2R61      HGR61
   24    25	 1 ;      CG2R61     CG2R61
   24    56	 1 ;      CG2R61      HGR61
   25    26	 1 ;      CG2R61     CG2R61
   25    57	 1 ;      CG2R61      HGR61
   26    58	 1 ;      CG2R61      HGR61
   27    28	 1 ;       NG301      CG331
   27    29	 1 ;       NG301      SG3O2
   28    59	 1 ;       CG331       HGA3
   28    60	 1 ;       CG331       HGA3
   28    61	 1 ;       CG331       HGA3
   29    32	 1 ;       SG3O2      CG331
   29    30	 1 ;       SG3O2      OG2P1
   29    31	 1 ;       SG3O2      OG2P1
   32    62	 1 ;       CG331       HGA3
   32    63	 1 ;       CG331       HGA3
   32    64	 1 ;       CG331       HGA3
   33    34	 1 ;       CG2O1      OG2D1
   33    35	 1 ;       CG2O1      NG2S1
   35    36	 1 ;       NG2S1       HGP1
   35    37	 1 ;       NG2S1      CG311
   37    39	 1 ;       CG311     CG2R61
   37    38	 1 ;       CG311      CG331
   37    65	 1 ;       CG311       HGA1
   38    66	 1 ;       CG331       HGA3
   38    67	 1 ;       CG331       HGA3
   38    68	 1 ;       CG331       HGA3
   39    40	 1 ;      CG2R61     CG2R61
   39    45	 1 ;      CG2R61     CG2R61
   40    41	 1 ;      CG2R61     CG2R61
   40    69	 1 ;      CG2R61      HGR61
   41    42	 1 ;      CG2R61     CG2R66
   41    70	 1 ;      CG2R61      HGR62
   42    44	 1 ;      CG2R66     CG2R61
   42    43	 1 ;      CG2R66       FGR1
   44    45	 1 ;      CG2R61     CG2R61
   44    71	 1 ;      CG2R61      HGR62
   45    72	 1 ;      CG2R61      HGR61

[ pairs ]
;	ai	  aj funct			  c0			c1			  c2			c3
    1     7	 1
    1     4	 1
    1    33	 1
    1    59	 1
    1    60	 1
    1    61	 1
    1    32	 1
    1    30	 1
    1    31	 1
    2    28	 1
    2    29	 1
    2     5	 1
    2    48	 1
    2     8	 1
    2    12	 1
    2    73	 1
    2    47	 1
    3    27	 1
    3     6	 1
    3    33	 1
    3     9	 1
    3    10	 1
    3    13	 1
    4    46	 1
    4     8	 1
    4    12	 1
    4    73	 1
    4    48	 1
    4    34	 1
    4    35	 1
    5    27	 1
    5     7	 1
    5    36	 1
    5    37	 1
    6    46	 1
    6    28	 1
    6    29	 1
    6    47	 1
    6    34	 1
    6    35	 1
    7    46	 1
    7    47	 1
    7    11	 1
    7    14	 1
    7    74	 1
    8    13	 1
    8    14	 1
    8    74	 1
    9    73	 1
    9    20	 1
    9    15	 1
    9    16	 1
    9    13	 1
   10    73	 1
   10    21	 1
   10    52	 1
   10    53	 1
   10    49	 1
   10    50	 1
   10    51	 1
   10    19	 1
   10    17	 1
   10    18	 1
   11    14	 1
   11    12	 1
   11    74	 1
   12    20	 1
   12    15	 1
   12    16	 1
   13    73	 1
   13    14	 1
   13    74	 1
   14    22	 1
   14    26	 1
   15    74	 1
   15    21	 1
   15    52	 1
   15    53	 1
   15    19	 1
   15    17	 1
   15    18	 1
   16    74	 1
   16    21	 1
   16    52	 1
   16    53	 1
   16    49	 1
   16    50	 1
   16    51	 1
   17    20	 1
   18    20	 1
   19    20	 1
   20    74	 1
   20    49	 1
   20    50	 1
   20    51	 1
   20    23	 1
   20    54	 1
   20    25	 1
   20    58	 1
   21    24	 1
   21    55	 1
   21    57	 1
   22    52	 1
   22    53	 1
   22    25	 1
   22    58	 1
   22    56	 1
   23    26	 1
   23    57	 1
   24    54	 1
   24    58	 1
   25    55	 1
   26    52	 1
   26    53	 1
   26    54	 1
   26    56	 1
   27    46	 1
   27    48	 1
   27    62	 1
   27    63	 1
   27    64	 1
   28    32	 1
   28    30	 1
   28    31	 1
   29    59	 1
   29    60	 1
   29    61	 1
   30    62	 1
   30    63	 1
   30    64	 1
   31    62	 1
   31    63	 1
   31    64	 1
   33    47	 1
   33    48	 1
   33    39	 1
   33    38	 1
   33    65	 1
   34    36	 1
   34    37	 1
   35    40	 1
   35    45	 1
   35    66	 1
   35    67	 1
   35    68	 1
   36    39	 1
   36    38	 1
   36    65	 1
   37    41	 1
   37    69	 1
   37    44	 1
   37    72	 1
   38    40	 1
   38    45	 1
   39    66	 1
   39    67	 1
   39    68	 1
   39    42	 1
   39    70	 1
   39    71	 1
   40    65	 1
   40    44	 1
   40    72	 1
   40    43	 1
   41    45	 1
   41    71	 1
   42    69	 1
   42    72	 1
   43    70	 1
   43    45	 1
   43    71	 1
   44    70	 1
   45    65	 1
   45    69	 1
   54    55	 1
   55    56	 1
   56    57	 1
   57    58	 1
   65    66	 1
   65    67	 1
   65    68	 1
   69    70	 1
   71    72	 1

[ angles ]
;	ai	  aj	ak funct			c0			  c1			c2			  c3
    2     1    27	5 ;     CG2R61     CG2R61      NG301
    2     1     6	5 ;     CG2R61     CG2R61     CG2R61
   27     1     6	5 ;      NG301     CG2R61     CG2R61
    3     2     1	5 ;     CG2R61     CG2R61     CG2R61
    3     2    46	5 ;     CG2R61     CG2R61      HGR61
    1     2    46	5 ;     CG2R61     CG2R61      HGR61
    7     3     2	5 ;     CG3C51     CG2R61     CG2R61
    7     3     4	5 ;     CG3C51     CG2R61     CG2R61
    2     3     4	5 ;     CG2R61     CG2R61     CG2R61
    3     4     5	5 ;     CG2R61     CG2R61     CG2R61
    3     4    47	5 ;     CG2R61     CG2R61      HGR61
    5     4    47	5 ;     CG2R61     CG2R61      HGR61
    4     5     6	5 ;     CG2R61     CG2R61     CG2R61
    4     5    33	5 ;     CG2R61     CG2R61      CG2O1
    6     5    33	5 ;     CG2R61     CG2R61      CG2O1
    1     6     5	5 ;     CG2R61     CG2R61     CG2R61
    1     6    48	5 ;     CG2R61     CG2R61      HGR61
    5     6    48	5 ;     CG2R61     CG2R61      HGR61
    8     7    12	5 ;     OG3C51     CG3C51     NG3C51
    8     7     3	5 ;     OG3C51     CG3C51     CG2R61
    8     7    73	5 ;     OG3C51     CG3C51       HGA1
   12     7     3	5 ;     NG3C51     CG3C51     CG2R61
   12     7    73	5 ;     NG3C51     CG3C51       HGA1
    3     7    73	5 ;     CG2R61     CG3C51       HGA1
    9     8     7	5 ;     NG3C51     OG3C51     CG3C51
   11     9     8	5 ;       HGP1     NG3C51     OG3C51
   11     9    10	5 ;       HGP1     NG3C51     CG3C51
    8     9    10	5 ;     OG3C51     NG3C51     CG3C51
    9    10    14	5 ;     NG3C51     CG3C51      CG301
    9    10    12	5 ;     NG3C51     CG3C51     NG3C51
    9    10    74	5 ;     NG3C51     CG3C51       HGA1
   14    10    12	5 ;      CG301     CG3C51     NG3C51
   14    10    74	5 ;      CG301     CG3C51       HGA1
   12    10    74	5 ;     NG3C51     CG3C51       HGA1
   10    12     7	5 ;     CG3C51     NG3C51     CG3C51
   10    12    13	5 ;     CG3C51     NG3C51       HGP1
    7    12    13	5 ;     CG3C51     NG3C51       HGP1
   20    14    15	5 ;      CG321      CG301      CG331
   20    14    10	5 ;      CG321      CG301     CG3C51
   20    14    16	5 ;      CG321      CG301      NG3P3
   15    14    10	5 ;      CG331      CG301     CG3C51
   15    14    16	5 ;      CG331      CG301      NG3P3
   10    14    16	5 ;     CG3C51      CG301      NG3P3
   14    15    49	5 ;      CG301      CG331       HGA3
   14    15    50	5 ;      CG301      CG331       HGA3
   14    15    51	5 ;      CG301      CG331       HGA3
   49    15    50	5 ;       HGA3      CG331       HGA3
   49    15    51	5 ;       HGA3      CG331       HGA3
   50    15    51	5 ;       HGA3      CG331       HGA3
   14    16    19	5 ;      CG301      NG3P3       HGP2
   14    16    17	5 ;      CG301      NG3P3       HGP2
   14    16    18	5 ;      CG301      NG3P3       HGP2
   19    16    17	5 ;       HGP2      NG3P3       HGP2
   19    16    18	5 ;       HGP2      NG3P3       HGP2
   17    16    18	5 ;       HGP2      NG3P3       HGP2
   21    20    14	5 ;     CG2R61      CG321      CG301
   21    20    52	5 ;     CG2R61      CG321       HGA2
   21    20    53	5 ;     CG2R61      CG321       HGA2
   14    20    52	5 ;      CG301      CG321       HGA2
   14    20    53	5 ;      CG301      CG321       HGA2
   52    20    53	5 ;       HGA2      CG321       HGA2
   20    21    22	5 ;      CG321     CG2R61     CG2R61
   20    21    26	5 ;      CG321     CG2R61     CG2R61
   22    21    26	5 ;     CG2R61     CG2R61     CG2R61
   21    22    23	5 ;     CG2R61     CG2R61     CG2R61
   21    22    54	5 ;     CG2R61     CG2R61      HGR61
   23    22    54	5 ;     CG2R61     CG2R61      HGR61
   22    23    24	5 ;     CG2R61     CG2R61     CG2R61
   22    23    55	5 ;     CG2R61     CG2R61      HGR61
   24    23    55	5 ;     CG2R61     CG2R61      HGR61
   23    24    25	5 ;     CG2R61     CG2R61     CG2R61
   23    24    56	5 ;     CG2R61     CG2R61      HGR61
   25    24    56	5 ;     CG2R61     CG2R61      HGR61
   26    25    24	5 ;     CG2R61     CG2R61     CG2R61
   26    25    57	5 ;     CG2R61     CG2R61      HGR61
   24    25    57	5 ;     CG2R61     CG2R61      HGR61
   21    26    25	5 ;     CG2R61     CG2R61     CG2R61
   21    26    58	5 ;     CG2R61     CG2R61      HGR61
   25    26    58	5 ;     CG2R61     CG2R61      HGR61
   28    27     1	5 ;      CG331      NG301     CG2R61
   28    27    29	5 ;      CG331      NG301      SG3O2
    1    27    29	5 ;     CG2R61      NG301      SG3O2
   27    28    59	5 ;      NG301      CG331       HGA3
   27    28    60	5 ;      NG301      CG331       HGA3
   27    28    61	5 ;      NG301      CG331       HGA3
   59    28    60	5 ;       HGA3      CG331       HGA3
   59    28    61	5 ;       HGA3      CG331       HGA3
   60    28    61	5 ;       HGA3      CG331       HGA3
   27    29    32	5 ;      NG301      SG3O2      CG331
   27    29    30	5 ;      NG301      SG3O2      OG2P1
   27    29    31	5 ;      NG301      SG3O2      OG2P1
   32    29    30	5 ;      CG331      SG3O2      OG2P1
   32    29    31	5 ;      CG331      SG3O2      OG2P1
   30    29    31	5 ;      OG2P1      SG3O2      OG2P1
   29    32    62	5 ;      SG3O2      CG331       HGA3
   29    32    63	5 ;      SG3O2      CG331       HGA3
   29    32    64	5 ;      SG3O2      CG331       HGA3
   62    32    63	5 ;       HGA3      CG331       HGA3
   62    32    64	5 ;       HGA3      CG331       HGA3
   63    32    64	5 ;       HGA3      CG331       HGA3
    5    33    34	5 ;     CG2R61      CG2O1      OG2D1
    5    33    35	5 ;     CG2R61      CG2O1      NG2S1
   34    33    35	5 ;      OG2D1      CG2O1      NG2S1
   33    35    36	5 ;      CG2O1      NG2S1       HGP1
   33    35    37	5 ;      CG2O1      NG2S1      CG311
   36    35    37	5 ;       HGP1      NG2S1      CG311
   35    37    39	5 ;      NG2S1      CG311     CG2R61
   35    37    38	5 ;      NG2S1      CG311      CG331
   35    37    65	5 ;      NG2S1      CG311       HGA1
   39    37    38	5 ;     CG2R61      CG311      CG331
   39    37    65	5 ;     CG2R61      CG311       HGA1
   38    37    65	5 ;      CG331      CG311       HGA1
   37    38    66	5 ;      CG311      CG331       HGA3
   37    38    67	5 ;      CG311      CG331       HGA3
   37    38    68	5 ;      CG311      CG331       HGA3
   66    38    67	5 ;       HGA3      CG331       HGA3
   66    38    68	5 ;       HGA3      CG331       HGA3
   67    38    68	5 ;       HGA3      CG331       HGA3
   37    39    40	5 ;      CG311     CG2R61     CG2R61
   37    39    45	5 ;      CG311     CG2R61     CG2R61
   40    39    45	5 ;     CG2R61     CG2R61     CG2R61
   39    40    41	5 ;     CG2R61     CG2R61     CG2R61
   39    40    69	5 ;     CG2R61     CG2R61      HGR61
   41    40    69	5 ;     CG2R61     CG2R61      HGR61
   40    41    42	5 ;     CG2R61     CG2R61     CG2R66
   40    41    70	5 ;     CG2R61     CG2R61      HGR62
   42    41    70	5 ;     CG2R66     CG2R61      HGR62
   41    42    44	5 ;     CG2R61     CG2R66     CG2R61
   41    42    43	5 ;     CG2R61     CG2R66       FGR1
   44    42    43	5 ;     CG2R61     CG2R66       FGR1
   45    44    42	5 ;     CG2R61     CG2R61     CG2R66
   45    44    71	5 ;     CG2R61     CG2R61      HGR62
   42    44    71	5 ;     CG2R66     CG2R61      HGR62
   39    45    44	5 ;     CG2R61     CG2R61     CG2R61
   39    45    72	5 ;     CG2R61     CG2R61      HGR61
   44    45    72	5 ;     CG2R61     CG2R61      HGR61

[ dihedrals ]
;	ai	  aj	ak	  al funct			  c0			c1			  c2			c3			  c4			c5
   27     1     2     3	 9 ;      NG301     CG2R61     CG2R61     CG2R61
   27     1     2    46	 9 ;      NG301     CG2R61     CG2R61      HGR61
    6     1     2     3	 9 ;     CG2R61     CG2R61     CG2R61     CG2R61
    6     1     2    46	 9 ;     CG2R61     CG2R61     CG2R61      HGR61
    2     1    27    28	 9 ;     CG2R61     CG2R61      NG301      CG331
    2     1    27    29	 9 ;     CG2R61     CG2R61      NG301      SG3O2
    6     1    27    28	 9 ;     CG2R61     CG2R61      NG301      CG331
    6     1    27    29	 9 ;     CG2R61     CG2R61      NG301      SG3O2
    2     1     6     5	 9 ;     CG2R61     CG2R61     CG2R61     CG2R61
    2     1     6    48	 9 ;     CG2R61     CG2R61     CG2R61      HGR61
   27     1     6     5	 9 ;      NG301     CG2R61     CG2R61     CG2R61
   27     1     6    48	 9 ;      NG301     CG2R61     CG2R61      HGR61
    1     2     3     7	 9 ;     CG2R61     CG2R61     CG2R61     CG3C51
    1     2     3     4	 9 ;     CG2R61     CG2R61     CG2R61     CG2R61
   46     2     3     7	 9 ;      HGR61     CG2R61     CG2R61     CG3C51
   46     2     3     4	 9 ;      HGR61     CG2R61     CG2R61     CG2R61
    2     3     7     8	 9 ;     CG2R61     CG2R61     CG3C51     OG3C51
    2     3     7    12	 9 ;     CG2R61     CG2R61     CG3C51     NG3C51
    2     3     7    73	 9 ;     CG2R61     CG2R61     CG3C51       HGA1
    4     3     7     8	 9 ;     CG2R61     CG2R61     CG3C51     OG3C51
    4     3     7    12	 9 ;     CG2R61     CG2R61     CG3C51     NG3C51
    4     3     7    73	 9 ;     CG2R61     CG2R61     CG3C51       HGA1
    7     3     4     5	 9 ;     CG3C51     CG2R61     CG2R61     CG2R61
    7     3     4    47	 9 ;     CG3C51     CG2R61     CG2R61      HGR61
    2     3     4     5	 9 ;     CG2R61     CG2R61     CG2R61     CG2R61
    2     3     4    47	 9 ;     CG2R61     CG2R61     CG2R61      HGR61
    3     4     5     6	 9 ;     CG2R61     CG2R61     CG2R61     CG2R61
    3     4     5    33	 9 ;     CG2R61     CG2R61     CG2R61      CG2O1
   47     4     5     6	 9 ;      HGR61     CG2R61     CG2R61     CG2R61
   47     4     5    33	 9 ;      HGR61     CG2R61     CG2R61      CG2O1
    4     5     6     1	 9 ;     CG2R61     CG2R61     CG2R61     CG2R61
    4     5     6    48	 9 ;     CG2R61     CG2R61     CG2R61      HGR61
   33     5     6     1	 9 ;      CG2O1     CG2R61     CG2R61     CG2R61
   33     5     6    48	 9 ;      CG2O1     CG2R61     CG2R61      HGR61
    4     5    33    34	 9 ;     CG2R61     CG2R61      CG2O1      OG2D1
    4     5    33    35	 9 ;     CG2R61     CG2R61      CG2O1      NG2S1
    6     5    33    34	 9 ;     CG2R61     CG2R61      CG2O1      OG2D1
    6     5    33    35	 9 ;     CG2R61     CG2R61      CG2O1      NG2S1
   12     7     8     9	 9 ;     NG3C51     CG3C51     OG3C51     NG3C51
    3     7     8     9	 9 ;     CG2R61     CG3C51     OG3C51     NG3C51
   73     7     8     9	 9 ;       HGA1     CG3C51     OG3C51     NG3C51
    8     7    12    10	 9 ;     OG3C51     CG3C51     NG3C51     CG3C51
    8     7    12    13	 9 ;     OG3C51     CG3C51     NG3C51       HGP1
    3     7    12    10	 9 ;     CG2R61     CG3C51     NG3C51     CG3C51
    3     7    12    13	 9 ;     CG2R61     CG3C51     NG3C51       HGP1
   73     7    12    10	 9 ;       HGA1     CG3C51     NG3C51     CG3C51
   73     7    12    13	 9 ;       HGA1     CG3C51     NG3C51       HGP1
    7     8     9    11	 9 ;     CG3C51     OG3C51     NG3C51       HGP1
    7     8     9    10	 9 ;     CG3C51     OG3C51     NG3C51     CG3C51
   11     9    10    14	 9 ;       HGP1     NG3C51     CG3C51      CG301
   11     9    10    12	 9 ;       HGP1     NG3C51     CG3C51     NG3C51
   11     9    10    74	 9 ;       HGP1     NG3C51     CG3C51       HGA1
    8     9    10    14	 9 ;     OG3C51     NG3C51     CG3C51      CG301
    8     9    10    12	 9 ;     OG3C51     NG3C51     CG3C51     NG3C51
    8     9    10    74	 9 ;     OG3C51     NG3C51     CG3C51       HGA1
    9    10    14    20	 9 ;     NG3C51     CG3C51      CG301      CG321
    9    10    14    15	 9 ;     NG3C51     CG3C51      CG301      CG331
    9    10    14    16	 9 ;     NG3C51     CG3C51      CG301      NG3P3
   12    10    14    20	 9 ;     NG3C51     CG3C51      CG301      CG321
   12    10    14    15	 9 ;     NG3C51     CG3C51      CG301      CG331
   12    10    14    16	 9 ;     NG3C51     CG3C51      CG301      NG3P3
   74    10    14    20	 9 ;       HGA1     CG3C51      CG301      CG321
   74    10    14    15	 9 ;       HGA1     CG3C51      CG301      CG331
   74    10    14    16	 9 ;       HGA1     CG3C51      CG301      NG3P3
    9    10    12     7	 9 ;     NG3C51     CG3C51     NG3C51     CG3C51
    9    10    12    13	 9 ;     NG3C51     CG3C51     NG3C51       HGP1
   14    10    12     7	 9 ;      CG301     CG3C51     NG3C51     CG3C51
   14    10    12    13	 9 ;      CG301     CG3C51     NG3C51       HGP1
   74    10    12     7	 9 ;       HGA1     CG3C51     NG3C51     CG3C51
   74    10    12    13	 9 ;       HGA1     CG3C51     NG3C51       HGP1
   15    14    20    21	 9 ;      CG331      CG301      CG321     CG2R61
   15    14    20    52	 9 ;      CG331      CG301      CG321       HGA2
   15    14    20    53	 9 ;      CG331      CG301      CG321       HGA2
   10    14    20    21	 9 ;     CG3C51      CG301      CG321     CG2R61
   10    14    20    52	 9 ;     CG3C51      CG301      CG321       HGA2
   10    14    20    53	 9 ;     CG3C51      CG301      CG321       HGA2
   16    14    20    21	 9 ;      NG3P3      CG301      CG321     CG2R61
   16    14    20    52	 9 ;      NG3P3      CG301      CG321       HGA2
   16    14    20    53	 9 ;      NG3P3      CG301      CG321       HGA2
   20    14    15    49	 9 ;      CG321      CG301      CG331       HGA3
   20    14    15    50	 9 ;      CG321      CG301      CG331       HGA3
   20    14    15    51	 9 ;      CG321      CG301      CG331       HGA3
   10    14    15    49	 9 ;     CG3C51      CG301      CG331       HGA3
   10    14    15    50	 9 ;     CG3C51      CG301      CG331       HGA3
   10    14    15    51	 9 ;     CG3C51      CG301      CG331       HGA3
   16    14    15    49	 9 ;      NG3P3      CG301      CG331       HGA3
   16    14    15    50	 9 ;      NG3P3      CG301      CG331       HGA3
   16    14    15    51	 9 ;      NG3P3      CG301      CG331       HGA3
   20    14    16    19	 9 ;      CG321      CG301      NG3P3       HGP2
   20    14    16    17	 9 ;      CG321      CG301      NG3P3       HGP2
   20    14    16    18	 9 ;      CG321      CG301      NG3P3       HGP2
   15    14    16    19	 9 ;      CG331      CG301      NG3P3       HGP2
   15    14    16    17	 9 ;      CG331      CG301      NG3P3       HGP2
   15    14    16    18	 9 ;      CG331      CG301      NG3P3       HGP2
   10    14    16    19	 9 ;     CG3C51      CG301      NG3P3       HGP2
   10    14    16    17	 9 ;     CG3C51      CG301      NG3P3       HGP2
   10    14    16    18	 9 ;     CG3C51      CG301      NG3P3       HGP2
   14    20    21    22	 9 ;      CG301      CG321     CG2R61     CG2R61
   14    20    21    26	 9 ;      CG301      CG321     CG2R61     CG2R61
   52    20    21    22	 9 ;       HGA2      CG321     CG2R61     CG2R61
   52    20    21    26	 9 ;       HGA2      CG321     CG2R61     CG2R61
   53    20    21    22	 9 ;       HGA2      CG321     CG2R61     CG2R61
   53    20    21    26	 9 ;       HGA2      CG321     CG2R61     CG2R61
   20    21    22    23	 9 ;      CG321     CG2R61     CG2R61     CG2R61
   20    21    22    54	 9 ;      CG321     CG2R61     CG2R61      HGR61
   26    21    22    23	 9 ;     CG2R61     CG2R61     CG2R61     CG2R61
   26    21    22    54	 9 ;     CG2R61     CG2R61     CG2R61      HGR61
   20    21    26    25	 9 ;      CG321     CG2R61     CG2R61     CG2R61
   20    21    26    58	 9 ;      CG321     CG2R61     CG2R61      HGR61
   22    21    26    25	 9 ;     CG2R61     CG2R61     CG2R61     CG2R61
   22    21    26    58	 9 ;     CG2R61     CG2R61     CG2R61      HGR61
   21    22    23    24	 9 ;     CG2R61     CG2R61     CG2R61     CG2R61
   21    22    23    55	 9 ;     CG2R61     CG2R61     CG2R61      HGR61
   54    22    23    24	 9 ;      HGR61     CG2R61     CG2R61     CG2R61
   54    22    23    55	 9 ;      HGR61     CG2R61     CG2R61      HGR61
   22    23    24    25	 9 ;     CG2R61     CG2R61     CG2R61     CG2R61
   22    23    24    56	 9 ;     CG2R61     CG2R61     CG2R61      HGR61
   55    23    24    25	 9 ;      HGR61     CG2R61     CG2R61     CG2R61
   55    23    24    56	 9 ;      HGR61     CG2R61     CG2R61      HGR61
   23    24    25    26	 9 ;     CG2R61     CG2R61     CG2R61     CG2R61
   23    24    25    57	 9 ;     CG2R61     CG2R61     CG2R61      HGR61
   56    24    25    26	 9 ;      HGR61     CG2R61     CG2R61     CG2R61
   56    24    25    57	 9 ;      HGR61     CG2R61     CG2R61      HGR61
   24    25    26    21	 9 ;     CG2R61     CG2R61     CG2R61     CG2R61
   24    25    26    58	 9 ;     CG2R61     CG2R61     CG2R61      HGR61
   57    25    26    21	 9 ;      HGR61     CG2R61     CG2R61     CG2R61
   57    25    26    58	 9 ;      HGR61     CG2R61     CG2R61      HGR61
    1    27    28    59	 9 ;     CG2R61      NG301      CG331       HGA3
    1    27    28    60	 9 ;     CG2R61      NG301      CG331       HGA3
    1    27    28    61	 9 ;     CG2R61      NG301      CG331       HGA3
   29    27    28    59	 9 ;      SG3O2      NG301      CG331       HGA3
   29    27    28    60	 9 ;      SG3O2      NG301      CG331       HGA3
   29    27    28    61	 9 ;      SG3O2      NG301      CG331       HGA3
   28    27    29    32	 9 ;      CG331      NG301      SG3O2      CG331
   28    27    29    30	 9 ;      CG331      NG301      SG3O2      OG2P1
   28    27    29    31	 9 ;      CG331      NG301      SG3O2      OG2P1
    1    27    29    32	 9 ;     CG2R61      NG301      SG3O2      CG331
    1    27    29    30	 9 ;     CG2R61      NG301      SG3O2      OG2P1
    1    27    29    31	 9 ;     CG2R61      NG301      SG3O2      OG2P1
   27    29    32    62	 9 ;      NG301      SG3O2      CG331       HGA3
   27    29    32    63	 9 ;      NG301      SG3O2      CG331       HGA3
   27    29    32    64	 9 ;      NG301      SG3O2      CG331       HGA3
   30    29    32    62	 9 ;      OG2P1      SG3O2      CG331       HGA3
   30    29    32    63	 9 ;      OG2P1      SG3O2      CG331       HGA3
   30    29    32    64	 9 ;      OG2P1      SG3O2      CG331       HGA3
   31    29    32    62	 9 ;      OG2P1      SG3O2      CG331       HGA3
   31    29    32    63	 9 ;      OG2P1      SG3O2      CG331       HGA3
   31    29    32    64	 9 ;      OG2P1      SG3O2      CG331       HGA3
    5    33    35    36	 9 ;     CG2R61      CG2O1      NG2S1       HGP1
    5    33    35    37	 9 ;     CG2R61      CG2O1      NG2S1      CG311
   34    33    35    36	 9 ;      OG2D1      CG2O1      NG2S1       HGP1
   34    33    35    37	 9 ;      OG2D1      CG2O1      NG2S1      CG311
   33    35    37    39	 9 ;      CG2O1      NG2S1      CG311     CG2R61
   33    35    37    38	 9 ;      CG2O1      NG2S1      CG311      CG331
   33    35    37    65	 9 ;      CG2O1      NG2S1      CG311       HGA1
   36    35    37    39	 9 ;       HGP1      NG2S1      CG311     CG2R61
   36    35    37    38	 9 ;       HGP1      NG2S1      CG311      CG331
   36    35    37    65	 9 ;       HGP1      NG2S1      CG311       HGA1
   35    37    39    40	 9 ;      NG2S1      CG311     CG2R61     CG2R61
   35    37    39    45	 9 ;      NG2S1      CG311     CG2R61     CG2R61
   38    37    39    40	 9 ;      CG331      CG311     CG2R61     CG2R61
   38    37    39    45	 9 ;      CG331      CG311     CG2R61     CG2R61
   65    37    39    40	 9 ;       HGA1      CG311     CG2R61     CG2R61
   65    37    39    45	 9 ;       HGA1      CG311     CG2R61     CG2R61
   35    37    38    66	 9 ;      NG2S1      CG311      CG331       HGA3
   35    37    38    67	 9 ;      NG2S1      CG311      CG331       HGA3
   35    37    38    68	 9 ;      NG2S1      CG311      CG331       HGA3
   39    37    38    66	 9 ;     CG2R61      CG311      CG331       HGA3
   39    37    38    67	 9 ;     CG2R61      CG311      CG331       HGA3
   39    37    38    68	 9 ;     CG2R61      CG311      CG331       HGA3
   65    37    38    66	 9 ;       HGA1      CG311      CG331       HGA3
   65    37    38    67	 9 ;       HGA1      CG311      CG331       HGA3
   65    37    38    68	 9 ;       HGA1      CG311      CG331       HGA3
   37    39    40    41	 9 ;      CG311     CG2R61     CG2R61     CG2R61
   37    39    40    69	 9 ;      CG311     CG2R61     CG2R61      HGR61
   45    39    40    41	 9 ;     CG2R61     CG2R61     CG2R61     CG2R61
   45    39    40    69	 9 ;     CG2R61     CG2R61     CG2R61      HGR61
   37    39    45    44	 9 ;      CG311     CG2R61     CG2R61     CG2R61
   37    39    45    72	 9 ;      CG311     CG2R61     CG2R61      HGR61
   40    39    45    44	 9 ;     CG2R61     CG2R61     CG2R61     CG2R61
   40    39    45    72	 9 ;     CG2R61     CG2R61     CG2R61      HGR61
   39    40    41    42	 9 ;     CG2R61     CG2R61     CG2R61     CG2R66
   39    40    41    70	 9 ;     CG2R61     CG2R61     CG2R61      HGR62
   69    40    41    42	 9 ;      HGR61     CG2R61     CG2R61     CG2R66
   69    40    41    70	 9 ;      HGR61     CG2R61     CG2R61      HGR62
   40    41    42    44	 9 ;     CG2R61     CG2R61     CG2R66     CG2R61
   40    41    42    43	 9 ;     CG2R61     CG2R61     CG2R66       FGR1
   70    41    42    44	 9 ;      HGR62     CG2R61     CG2R66     CG2R61
   70    41    42    43	 9 ;      HGR62     CG2R61     CG2R66       FGR1
   41    42    44    45	 9 ;     CG2R61     CG2R66     CG2R61     CG2R61
   41    42    44    71	 9 ;     CG2R61     CG2R66     CG2R61      HGR62
   43    42    44    45	 9 ;       FGR1     CG2R66     CG2R61     CG2R61
   43    42    44    71	 9 ;       FGR1     CG2R66     CG2R61      HGR62
   42    44    45    39	 9 ;     CG2R66     CG2R61     CG2R61     CG2R61
   42    44    45    72	 9 ;     CG2R66     CG2R61     CG2R61      HGR61
   71    44    45    39	 9 ;      HGR62     CG2R61     CG2R61     CG2R61
   71    44    45    72	 9 ;      HGR62     CG2R61     CG2R61      HGR61

[ dihedrals ]
;	ai	  aj	ak	  al funct			  c0			c1			  c2			c3
   33     5    35    34	 2

