Gravel Rubs Often Many Awfully Cauterized Sores
   64
    1LIG     C1    1  -1.182   0.530  -1.535
    1LIG     C2    2  -1.272   0.622  -1.621
    1LIG     N1    3  -1.397   0.545  -1.645
    1LIG     H1    4  -1.389   0.502  -1.738
    1LIG     H2    5  -1.392   0.462  -1.583
    1LIG     C3    6  -1.533   0.599  -1.629
    1LIG     C4    7  -1.580   0.692  -1.737
    1LIG     C5    8  -1.558   0.743  -1.598
    1LIG     C6    9  -1.624   0.491  -1.575
    1LIG     C7   10  -1.739   0.526  -1.502
    1LIG     C8   11  -1.843   0.436  -1.476
    1LIG     C9   12  -1.829   0.305  -1.525
    1LIG    C10   13  -1.713   0.266  -1.592
    1LIG    C11   14  -1.611   0.357  -1.616
    1LIG    C12   15  -1.973   0.483  -1.407
    1LIG    C13   16  -1.933   0.558  -1.278
    1LIG    C14   17  -2.056   0.578  -1.496
    1LIG    C15   18  -2.066   0.366  -1.368
    1LIG     O1   19  -1.142   0.609  -1.422
    1LIG     H3   20  -1.088   0.685  -1.452
    1LIG    C16   21  -1.246   0.392  -1.505
    1LIG     N2   22  -1.166   0.290  -1.575
    1LIG    C17   23  -1.199   0.241  -1.699
    1LIG     O2   24  -1.298   0.280  -1.761
    1LIG    C18   25  -1.095   0.149  -1.757
    1LIG     H4   26  -1.079   0.257  -1.533
    1LIG    C19   27  -1.251   0.351  -1.356
    1LIG    C20   28  -1.235   0.204  -1.327
    1LIG    C21   29  -1.330   0.110  -1.372
    1LIG    C22   30  -1.315  -0.024  -1.338
    1LIG     F1   31  -1.408  -0.112  -1.378
    1LIG    C23   32  -1.207  -0.068  -1.263
    1LIG    C24   33  -1.111   0.024  -1.224
    1LIG    C25   34  -1.124   0.158  -1.256
    1LIG     F2   35  -1.006  -0.017  -1.152
    1LIG     HC   36  -1.092   0.511  -1.593
    1LIG    HC2   37  -1.294   0.715  -1.568
    1LIG    HC3   38  -1.223   0.644  -1.716
    1LIG    HC4   39  -1.512   0.722  -1.817
    1LIG    HC5   40  -1.684   0.680  -1.767
    1LIG    HC6   41  -1.644   0.771  -1.536
    1LIG    HC7   42  -1.469   0.804  -1.584
    1LIG    HC1   43  -1.748   0.628  -1.465
    1LIG    HC8   44  -1.908   0.234  -1.509
    1LIG    HC9   45  -1.703   0.163  -1.626
    1LIG   HC10   46  -1.522   0.326  -1.667
    1LIG   HC11   47  -1.347   0.391  -1.546
    1LIG   HC12   48  -1.171   0.404  -1.304
    1LIG   HC13   49  -1.347   0.384  -1.315
    1LIG   HC14   50  -1.414   0.142  -1.432
    1LIG   HC15   51  -1.198  -0.173  -1.236
    1LIG   HC16   52  -1.047   0.228  -1.225
    1LIG   HC17   53  -2.011   0.296  -1.305
    1LIG   HC18   54  -2.152   0.404  -1.314
    1LIG   HC19   55  -2.099   0.315  -1.458
    1LIG   HC20   56  -1.128   0.115  -1.855
    1LIG   HC21   57  -1.081   0.064  -1.691
    1LIG   HC22   58  -1.001   0.203  -1.767
    1LIG   HC23   59  -1.995   0.663  -1.527
    1LIG   HC24   60  -2.090   0.524  -1.585
    1LIG   HC25   61  -2.142   0.613  -1.440
    1LIG   HC26   62  -1.867   0.641  -1.304
    1LIG   HC27   63  -1.880   0.490  -1.211
    1LIG   HC28   64  -2.022   0.596  -1.229
   0.00000   0.00000   0.00000
