; Created by cgenff_charmm2gmx.py

[ moleculetype ]
; Name			   nrexcl
LIG				 3

[ atoms ]
;	 nr		  type	resnr residue  atom   cgnr	   charge		mass  typeB    chargeB		massB
; residue	 1 LIG rtp LIG q	qsum
     1      OG2D1      1    LIG      O      1     -0.342     15.999   ;
     2     CG2R53      1    LIG     C1      2     -0.359     12.011   ;
     3     NG2R53      1    LIG     N1      3     -0.171     14.007   ;
     4      CG331      1    LIG     C2      4     -0.169     12.011   ;
     5     CG3C53      1    LIG     C3      5      0.784     12.011   ;
     6      NG3P2      1    LIG     N2      6     -0.571     14.007   ;
     7       HGP2      1    LIG    HN3      7      0.336      1.008   ;
     8     CG3C50      1    LIG     C4      8      1.201     12.011   ;
     9     CG2DC1      1    LIG     C5      9      0.219     12.011   ;
    10     CG2DC1      1    LIG     C6     10     -0.187     12.011   ;
    11      CG321      1    LIG     C7     11     -0.041     12.011   ;
    12      NG311      1    LIG     N3     12     -0.531     14.007   ;
    13     CG2D2O      1    LIG     C8     13      0.009     12.011   ;
    14     HGPAM1      1    LIG    HN4     14      0.389      1.008   ;
    15     CG2DC2      1    LIG     C9     15     -0.372     12.011   ;
    16     CG2R61      1    LIG    C10     16     -0.134     12.011   ;
    17     CG2R61      1    LIG    C11     17     -0.131     12.011   ;
    18     CG2R61      1    LIG    C12     18     -0.105     12.011   ;
    19     CG2R61      1    LIG    C13     19     -0.116     12.011   ;
    20     CG2R61      1    LIG    C14     20     -0.105     12.011   ;
    21     CG2R61      1    LIG    C15     21     -0.131     12.011   ;
    22      NG3P3      1    LIG     N4     22     -0.267     14.007   ;
    23       HGP2      1    LIG     H1     23      0.301      1.008   ;
    24       HGP2      1    LIG     H2     24      0.301      1.008   ;
    25       HGA3      1    LIG    HC1     25      0.090      1.008   ;
    26       HGA3      1    LIG    HC2     26      0.090      1.008   ;
    27       HGA3      1    LIG    HC3     27      0.090      1.008   ;
    28       HGA1      1    LIG     HC     28      0.073      1.008   ;
    29       HGP2      1    LIG    HN2     29      0.336      1.008   ;
    30       HGA4      1    LIG    HC4     30      0.150      1.008   ;
    31       HGA2      1    LIG    HC5     31      0.090      1.008   ;
    32       HGA4      1    LIG    HC6     32      0.152      1.008   ;
    33       HGA4      1    LIG    HC7     33      0.150      1.008   ;
    34      HGR61      1    LIG    HC8     34      0.116      1.008   ;
    35      HGR61      1    LIG    HC9     35      0.116      1.008   ;
    36      HGR61      1    LIG   HC10     36      0.116      1.008   ;
    37      HGR61      1    LIG   HC11     37      0.116      1.008   ;
    38      HGR61      1    LIG   HC12     38      0.116      1.008   ;
    39       HGP2      1    LIG    HN1     39      0.301      1.008   ;
    40       HGA2      1    LIG    H20     40      0.090      1.008   ;

[ bonds ]
;	ai	  aj funct			  c0			c1			  c2			c3
    1     2	 1 ;       OG2D1     CG2R53
    2     3	 1 ;      CG2R53     NG2R53
    2     8	 1 ;      CG2R53     CG3C50
    3     4	 1 ;      NG2R53      CG331
    3     5	 1 ;      NG2R53     CG3C53
    4    25	 1 ;       CG331       HGA3
    4    26	 1 ;       CG331       HGA3
    4    27	 1 ;       CG331       HGA3
    5    22	 1 ;      CG3C53      NG3P3
    5     6	 1 ;      CG3C53      NG3P2
    5    28	 1 ;      CG3C53       HGA1
    6     8	 1 ;       NG3P2     CG3C50
    6     7	 1 ;       NG3P2       HGP2
    6    29	 1 ;       NG3P2       HGP2
    8    16	 1 ;      CG3C50     CG2R61
    8     9	 1 ;      CG3C50     CG2DC1
    9    10	 1 ;      CG2DC1     CG2DC1
    9    15	 1 ;      CG2DC1     CG2DC2
   10    11	 1 ;      CG2DC1      CG321
   10    30	 1 ;      CG2DC1       HGA4
   11    12	 1 ;       CG321      NG311
   11    31	 1 ;       CG321       HGA2
   11    40	 1 ;       CG321       HGA2
   12    13	 1 ;       NG311     CG2D2O
   12    14	 1 ;       NG311     HGPAM1
   13    15	 1 ;      CG2D2O     CG2DC2
   13    32	 1 ;      CG2D2O       HGA4
   15    33	 1 ;      CG2DC2       HGA4
   16    21	 1 ;      CG2R61     CG2R61
   16    17	 1 ;      CG2R61     CG2R61
   17    18	 1 ;      CG2R61     CG2R61
   17    34	 1 ;      CG2R61      HGR61
   18    19	 1 ;      CG2R61     CG2R61
   18    35	 1 ;      CG2R61      HGR61
   19    20	 1 ;      CG2R61     CG2R61
   19    36	 1 ;      CG2R61      HGR61
   20    21	 1 ;      CG2R61     CG2R61
   20    37	 1 ;      CG2R61      HGR61
   21    38	 1 ;      CG2R61      HGR61
   22    23	 1 ;       NG3P3       HGP2
   22    24	 1 ;       NG3P3       HGP2
   22    39	 1 ;       NG3P3       HGP2

[ pairs ]
;	ai	  aj funct			  c0			c1			  c2			c3
    1     4	 1
    1     5	 1
    1    16	 1
    1     6	 1
    1     9	 1
    2    25	 1
    2    26	 1
    2    27	 1
    2    22	 1
    2    28	 1
    2     7	 1
    2    29	 1
    2    21	 1
    2    17	 1
    2    10	 1
    2    15	 1
    3    16	 1
    3     9	 1
    3    23	 1
    3    24	 1
    3    39	 1
    3     7	 1
    3    29	 1
    4     8	 1
    4    22	 1
    4     6	 1
    4    28	 1
    5    25	 1
    5    26	 1
    5    27	 1
    5    16	 1
    5     9	 1
    6    23	 1
    6    24	 1
    6    39	 1
    6    21	 1
    6    17	 1
    6    10	 1
    6    15	 1
    7    22	 1
    7    28	 1
    7    16	 1
    7     9	 1
    8    22	 1
    8    28	 1
    8    11	 1
    8    30	 1
    8    13	 1
    8    33	 1
    8    20	 1
    8    38	 1
    8    18	 1
    8    34	 1
    9    29	 1
    9    21	 1
    9    17	 1
    9    12	 1
    9    31	 1
    9    40	 1
    9    32	 1
   10    16	 1
   10    13	 1
   10    33	 1
   10    14	 1
   11    15	 1
   11    32	 1
   12    30	 1
   12    33	 1
   13    31	 1
   13    40	 1
   14    31	 1
   14    40	 1
   14    15	 1
   14    32	 1
   15    16	 1
   15    30	 1
   16    29	 1
   16    19	 1
   16    35	 1
   16    37	 1
   17    20	 1
   17    38	 1
   17    36	 1
   18    21	 1
   18    37	 1
   19    34	 1
   19    38	 1
   20    35	 1
   21    34	 1
   21    36	 1
   22    29	 1
   23    28	 1
   24    28	 1
   28    39	 1
   28    29	 1
   30    31	 1
   30    40	 1
   32    33	 1
   34    35	 1
   35    36	 1
   36    37	 1
   37    38	 1

[ angles ]
;	ai	  aj	ak funct			c0			  c1			c2			  c3
    1     2     3	5 ;      OG2D1     CG2R53     NG2R53
    1     2     8	5 ;      OG2D1     CG2R53     CG3C50
    3     2     8	5 ;     NG2R53     CG2R53     CG3C50
    4     3     2	5 ;      CG331     NG2R53     CG2R53
    4     3     5	5 ;      CG331     NG2R53     CG3C53
    2     3     5	5 ;     CG2R53     NG2R53     CG3C53
    3     4    25	5 ;     NG2R53      CG331       HGA3
    3     4    26	5 ;     NG2R53      CG331       HGA3
    3     4    27	5 ;     NG2R53      CG331       HGA3
   25     4    26	5 ;       HGA3      CG331       HGA3
   25     4    27	5 ;       HGA3      CG331       HGA3
   26     4    27	5 ;       HGA3      CG331       HGA3
    3     5    22	5 ;     NG2R53     CG3C53      NG3P3
    3     5     6	5 ;     NG2R53     CG3C53      NG3P2
    3     5    28	5 ;     NG2R53     CG3C53       HGA1
   22     5     6	5 ;      NG3P3     CG3C53      NG3P2
   22     5    28	5 ;      NG3P3     CG3C53       HGA1
    6     5    28	5 ;      NG3P2     CG3C53       HGA1
    5     6     8	5 ;     CG3C53      NG3P2     CG3C50
    5     6     7	5 ;     CG3C53      NG3P2       HGP2
    5     6    29	5 ;     CG3C53      NG3P2       HGP2
    8     6     7	5 ;     CG3C50      NG3P2       HGP2
    8     6    29	5 ;     CG3C50      NG3P2       HGP2
    7     6    29	5 ;       HGP2      NG3P2       HGP2
    2     8    16	5 ;     CG2R53     CG3C50     CG2R61
    2     8     6	5 ;     CG2R53     CG3C50      NG3P2
    2     8     9	5 ;     CG2R53     CG3C50     CG2DC1
   16     8     6	5 ;     CG2R61     CG3C50      NG3P2
   16     8     9	5 ;     CG2R61     CG3C50     CG2DC1
    6     8     9	5 ;      NG3P2     CG3C50     CG2DC1
    8     9    10	5 ;     CG3C50     CG2DC1     CG2DC1
    8     9    15	5 ;     CG3C50     CG2DC1     CG2DC2
   10     9    15	5 ;     CG2DC1     CG2DC1     CG2DC2
    9    10    11	5 ;     CG2DC1     CG2DC1      CG321
    9    10    30	5 ;     CG2DC1     CG2DC1       HGA4
   11    10    30	5 ;      CG321     CG2DC1       HGA4
   10    11    12	5 ;     CG2DC1      CG321      NG311
   10    11    31	5 ;     CG2DC1      CG321       HGA2
   10    11    40	5 ;     CG2DC1      CG321       HGA2
   12    11    31	5 ;      NG311      CG321       HGA2
   12    11    40	5 ;      NG311      CG321       HGA2
   31    11    40	5 ;       HGA2      CG321       HGA2
   11    12    13	5 ;      CG321      NG311     CG2D2O
   11    12    14	5 ;      CG321      NG311     HGPAM1
   13    12    14	5 ;     CG2D2O      NG311     HGPAM1
   15    13    12	5 ;     CG2DC2     CG2D2O      NG311
   15    13    32	5 ;     CG2DC2     CG2D2O       HGA4
   12    13    32	5 ;      NG311     CG2D2O       HGA4
    9    15    13	5 ;     CG2DC1     CG2DC2     CG2D2O
    9    15    33	5 ;     CG2DC1     CG2DC2       HGA4
   13    15    33	5 ;     CG2D2O     CG2DC2       HGA4
   21    16     8	5 ;     CG2R61     CG2R61     CG3C50
   21    16    17	5 ;     CG2R61     CG2R61     CG2R61
    8    16    17	5 ;     CG3C50     CG2R61     CG2R61
   16    17    18	5 ;     CG2R61     CG2R61     CG2R61
   16    17    34	5 ;     CG2R61     CG2R61      HGR61
   18    17    34	5 ;     CG2R61     CG2R61      HGR61
   19    18    17	5 ;     CG2R61     CG2R61     CG2R61
   19    18    35	5 ;     CG2R61     CG2R61      HGR61
   17    18    35	5 ;     CG2R61     CG2R61      HGR61
   20    19    18	5 ;     CG2R61     CG2R61     CG2R61
   20    19    36	5 ;     CG2R61     CG2R61      HGR61
   18    19    36	5 ;     CG2R61     CG2R61      HGR61
   21    20    19	5 ;     CG2R61     CG2R61     CG2R61
   21    20    37	5 ;     CG2R61     CG2R61      HGR61
   19    20    37	5 ;     CG2R61     CG2R61      HGR61
   20    21    16	5 ;     CG2R61     CG2R61     CG2R61
   20    21    38	5 ;     CG2R61     CG2R61      HGR61
   16    21    38	5 ;     CG2R61     CG2R61      HGR61
   23    22     5	5 ;       HGP2      NG3P3     CG3C53
   23    22    24	5 ;       HGP2      NG3P3       HGP2
   23    22    39	5 ;       HGP2      NG3P3       HGP2
    5    22    24	5 ;     CG3C53      NG3P3       HGP2
    5    22    39	5 ;     CG3C53      NG3P3       HGP2
   24    22    39	5 ;       HGP2      NG3P3       HGP2

[ dihedrals ]
;	ai	  aj	ak	  al funct			  c0			c1			  c2			c3			  c4			c5
    1     2     3     4	 9 ;      OG2D1     CG2R53     NG2R53      CG331
    1     2     3     5	 9 ;      OG2D1     CG2R53     NG2R53     CG3C53
    8     2     3     4	 9 ;     CG3C50     CG2R53     NG2R53      CG331
    8     2     3     5	 9 ;     CG3C50     CG2R53     NG2R53     CG3C53
    1     2     8    16	 9 ;      OG2D1     CG2R53     CG3C50     CG2R61
    1     2     8     6	 9 ;      OG2D1     CG2R53     CG3C50      NG3P2
    1     2     8     9	 9 ;      OG2D1     CG2R53     CG3C50     CG2DC1
    3     2     8    16	 9 ;     NG2R53     CG2R53     CG3C50     CG2R61
    3     2     8     6	 9 ;     NG2R53     CG2R53     CG3C50      NG3P2
    3     2     8     9	 9 ;     NG2R53     CG2R53     CG3C50     CG2DC1
    2     3     4    25	 9 ;     CG2R53     NG2R53      CG331       HGA3
    2     3     4    26	 9 ;     CG2R53     NG2R53      CG331       HGA3
    2     3     4    27	 9 ;     CG2R53     NG2R53      CG331       HGA3
    5     3     4    25	 9 ;     CG3C53     NG2R53      CG331       HGA3
    5     3     4    26	 9 ;     CG3C53     NG2R53      CG331       HGA3
    5     3     4    27	 9 ;     CG3C53     NG2R53      CG331       HGA3
    4     3     5    22	 9 ;      CG331     NG2R53     CG3C53      NG3P3
    4     3     5     6	 9 ;      CG331     NG2R53     CG3C53      NG3P2
    4     3     5    28	 9 ;      CG331     NG2R53     CG3C53       HGA1
    2     3     5    22	 9 ;     CG2R53     NG2R53     CG3C53      NG3P3
    2     3     5     6	 9 ;     CG2R53     NG2R53     CG3C53      NG3P2
    2     3     5    28	 9 ;     CG2R53     NG2R53     CG3C53       HGA1
    3     5    22    23	 9 ;     NG2R53     CG3C53      NG3P3       HGP2
    3     5    22    24	 9 ;     NG2R53     CG3C53      NG3P3       HGP2
    3     5    22    39	 9 ;     NG2R53     CG3C53      NG3P3       HGP2
    6     5    22    23	 9 ;      NG3P2     CG3C53      NG3P3       HGP2
    6     5    22    24	 9 ;      NG3P2     CG3C53      NG3P3       HGP2
    6     5    22    39	 9 ;      NG3P2     CG3C53      NG3P3       HGP2
   28     5    22    23	 9 ;       HGA1     CG3C53      NG3P3       HGP2
   28     5    22    24	 9 ;       HGA1     CG3C53      NG3P3       HGP2
   28     5    22    39	 9 ;       HGA1     CG3C53      NG3P3       HGP2
    3     5     6     8	 9 ;     NG2R53     CG3C53      NG3P2     CG3C50
    3     5     6     7	 9 ;     NG2R53     CG3C53      NG3P2       HGP2
    3     5     6    29	 9 ;     NG2R53     CG3C53      NG3P2       HGP2
   22     5     6     8	 9 ;      NG3P3     CG3C53      NG3P2     CG3C50
   22     5     6     7	 9 ;      NG3P3     CG3C53      NG3P2       HGP2
   22     5     6    29	 9 ;      NG3P3     CG3C53      NG3P2       HGP2
   28     5     6     8	 9 ;       HGA1     CG3C53      NG3P2     CG3C50
   28     5     6     7	 9 ;       HGA1     CG3C53      NG3P2       HGP2
   28     5     6    29	 9 ;       HGA1     CG3C53      NG3P2       HGP2
    5     6     8     2	 9 ;     CG3C53      NG3P2     CG3C50     CG2R53
    5     6     8    16	 9 ;     CG3C53      NG3P2     CG3C50     CG2R61
    5     6     8     9	 9 ;     CG3C53      NG3P2     CG3C50     CG2DC1
    7     6     8     2	 9 ;       HGP2      NG3P2     CG3C50     CG2R53
    7     6     8    16	 9 ;       HGP2      NG3P2     CG3C50     CG2R61
    7     6     8     9	 9 ;       HGP2      NG3P2     CG3C50     CG2DC1
   29     6     8     2	 9 ;       HGP2      NG3P2     CG3C50     CG2R53
   29     6     8    16	 9 ;       HGP2      NG3P2     CG3C50     CG2R61
   29     6     8     9	 9 ;       HGP2      NG3P2     CG3C50     CG2DC1
    2     8    16    21	 9 ;     CG2R53     CG3C50     CG2R61     CG2R61
    2     8    16    17	 9 ;     CG2R53     CG3C50     CG2R61     CG2R61
    6     8    16    21	 9 ;      NG3P2     CG3C50     CG2R61     CG2R61
    6     8    16    17	 9 ;      NG3P2     CG3C50     CG2R61     CG2R61
    9     8    16    21	 9 ;     CG2DC1     CG3C50     CG2R61     CG2R61
    9     8    16    17	 9 ;     CG2DC1     CG3C50     CG2R61     CG2R61
    2     8     9    10	 9 ;     CG2R53     CG3C50     CG2DC1     CG2DC1
    2     8     9    15	 9 ;     CG2R53     CG3C50     CG2DC1     CG2DC2
   16     8     9    10	 9 ;     CG2R61     CG3C50     CG2DC1     CG2DC1
   16     8     9    15	 9 ;     CG2R61     CG3C50     CG2DC1     CG2DC2
    6     8     9    10	 9 ;      NG3P2     CG3C50     CG2DC1     CG2DC1
    6     8     9    15	 9 ;      NG3P2     CG3C50     CG2DC1     CG2DC2
    8     9    10    11	 9 ;     CG3C50     CG2DC1     CG2DC1      CG321
    8     9    10    30	 9 ;     CG3C50     CG2DC1     CG2DC1       HGA4
   15     9    10    11	 9 ;     CG2DC2     CG2DC1     CG2DC1      CG321
   15     9    10    30	 9 ;     CG2DC2     CG2DC1     CG2DC1       HGA4
    8     9    15    13	 9 ;     CG3C50     CG2DC1     CG2DC2     CG2D2O
    8     9    15    33	 9 ;     CG3C50     CG2DC1     CG2DC2       HGA4
   10     9    15    13	 9 ;     CG2DC1     CG2DC1     CG2DC2     CG2D2O
   10     9    15    33	 9 ;     CG2DC1     CG2DC1     CG2DC2       HGA4
    9    10    11    12	 9 ;     CG2DC1     CG2DC1      CG321      NG311
    9    10    11    31	 9 ;     CG2DC1     CG2DC1      CG321       HGA2
    9    10    11    40	 9 ;     CG2DC1     CG2DC1      CG321       HGA2
   30    10    11    12	 9 ;       HGA4     CG2DC1      CG321      NG311
   30    10    11    31	 9 ;       HGA4     CG2DC1      CG321       HGA2
   30    10    11    40	 9 ;       HGA4     CG2DC1      CG321       HGA2
   10    11    12    13	 9 ;     CG2DC1      CG321      NG311     CG2D2O
   10    11    12    14	 9 ;     CG2DC1      CG321      NG311     HGPAM1
   31    11    12    13	 9 ;       HGA2      CG321      NG311     CG2D2O
   31    11    12    14	 9 ;       HGA2      CG321      NG311     HGPAM1
   40    11    12    13	 9 ;       HGA2      CG321      NG311     CG2D2O
   40    11    12    14	 9 ;       HGA2      CG321      NG311     HGPAM1
   11    12    13    15	 9 ;      CG321      NG311     CG2D2O     CG2DC2
   11    12    13    32	 9 ;      CG321      NG311     CG2D2O       HGA4
   14    12    13    15	 9 ;     HGPAM1      NG311     CG2D2O     CG2DC2
   14    12    13    32	 9 ;     HGPAM1      NG311     CG2D2O       HGA4
   12    13    15     9	 9 ;      NG311     CG2D2O     CG2DC2     CG2DC1
   12    13    15    33	 9 ;      NG311     CG2D2O     CG2DC2       HGA4
   32    13    15     9	 9 ;       HGA4     CG2D2O     CG2DC2     CG2DC1
   32    13    15    33	 9 ;       HGA4     CG2D2O     CG2DC2       HGA4
    8    16    21    20	 9 ;     CG3C50     CG2R61     CG2R61     CG2R61
    8    16    21    38	 9 ;     CG3C50     CG2R61     CG2R61      HGR61
   17    16    21    20	 9 ;     CG2R61     CG2R61     CG2R61     CG2R61
   17    16    21    38	 9 ;     CG2R61     CG2R61     CG2R61      HGR61
   21    16    17    18	 9 ;     CG2R61     CG2R61     CG2R61     CG2R61
   21    16    17    34	 9 ;     CG2R61     CG2R61     CG2R61      HGR61
    8    16    17    18	 9 ;     CG3C50     CG2R61     CG2R61     CG2R61
    8    16    17    34	 9 ;     CG3C50     CG2R61     CG2R61      HGR61
   16    17    18    19	 9 ;     CG2R61     CG2R61     CG2R61     CG2R61
   16    17    18    35	 9 ;     CG2R61     CG2R61     CG2R61      HGR61
   34    17    18    19	 9 ;      HGR61     CG2R61     CG2R61     CG2R61
   34    17    18    35	 9 ;      HGR61     CG2R61     CG2R61      HGR61
   17    18    19    20	 9 ;     CG2R61     CG2R61     CG2R61     CG2R61
   17    18    19    36	 9 ;     CG2R61     CG2R61     CG2R61      HGR61
   35    18    19    20	 9 ;      HGR61     CG2R61     CG2R61     CG2R61
   35    18    19    36	 9 ;      HGR61     CG2R61     CG2R61      HGR61
   18    19    20    21	 9 ;     CG2R61     CG2R61     CG2R61     CG2R61
   18    19    20    37	 9 ;     CG2R61     CG2R61     CG2R61      HGR61
   36    19    20    21	 9 ;      HGR61     CG2R61     CG2R61     CG2R61
   36    19    20    37	 9 ;      HGR61     CG2R61     CG2R61      HGR61
   19    20    21    16	 9 ;     CG2R61     CG2R61     CG2R61     CG2R61
   19    20    21    38	 9 ;     CG2R61     CG2R61     CG2R61      HGR61
   37    20    21    16	 9 ;      HGR61     CG2R61     CG2R61     CG2R61
   37    20    21    38	 9 ;      HGR61     CG2R61     CG2R61      HGR61

[ dihedrals ]
;	ai	  aj	ak	  al funct			  c0			c1			  c2			c3
    2     8     3     1	 2
   13    15    12    32	 2

