GROningen MAchine for Chemical Simulation
   40
    1LIG      O    1  -1.159   0.303  -1.746
    1LIG     C1    2  -1.191   0.359  -1.642
    1LIG     N1    3  -1.159   0.487  -1.609
    1LIG     C2    4  -1.101   0.582  -1.701
    1LIG     C3    5  -1.200   0.510  -1.483
    1LIG     N2    6  -1.264   0.415  -1.424
    1LIG    HN3    7  -1.299   0.414  -1.328
    1LIG     C4    8  -1.278   0.303  -1.526
    1LIG     C5    9  -1.425   0.292  -1.571
    1LIG     C6   10  -1.464   0.208  -1.677
    1LIG     C7   11  -1.597   0.205  -1.715
    1LIG     N3   12  -1.694   0.276  -1.654
    1LIG     C8   13  -1.657   0.353  -1.550
    1LIG    HN4   14  -1.791   0.271  -1.686
    1LIG     C9   15  -1.526   0.363  -1.505
    1LIG    C10   16  -1.229   0.170  -1.467
    1LIG    C11   17  -1.247   0.143  -1.330
    1LIG    C12   18  -1.213   0.019  -1.275
    1LIG    C13   19  -1.159  -0.080  -1.356
    1LIG    C14   20  -1.139  -0.056  -1.491
    1LIG    C15   21  -1.174   0.068  -1.546
    1LIG     N4   22  -1.173   0.627  -1.419
    1LIG     H1   23  -1.137   0.698  -1.483
    1LIG     H2   24  -1.245   0.663  -1.358
    1LIG    HC1   25  -1.079   0.533  -1.795
    1LIG    HC2   26  -1.172   0.664  -1.718
    1LIG    HC3   27  -1.009   0.623  -1.658
    1LIG     HC   28  -1.294   0.552  -1.520
    1LIG    HN2   29  -1.177   0.375  -1.393
    1LIG    HC4   30  -1.391   0.147  -1.728
    1LIG    HC5   31  -1.625   0.141  -1.798
    1LIG    HC6   32  -1.733   0.409  -1.498
    1LIG    HC7   33  -1.502   0.426  -1.421
    1LIG    HC8   34  -1.289   0.219  -1.266
    1LIG    HC9   35  -1.228   0.001  -1.169
    1LIG   HC10   36  -1.133  -0.176  -1.314
    1LIG   HC11   37  -1.097  -0.132  -1.554
    1LIG   HC12   38  -1.158   0.086  -1.652
    1LIG    HN1   39  -1.095   0.605  -1.358
    1LIG    H20   40  -1.615   0.122  -1.646
   0.00000   0.00000   0.00000
