Gallium Rubidium Oxygen Manganese Argon Carbon Silicon
   49
    1LIG     C1    1  -1.273   0.440  -1.620
    1LIG     N1    2  -1.168   0.450  -1.726
    1LIG     HN    3  -1.157   0.392  -1.809
    1LIG     C2    4  -1.094   0.549  -1.690
    1LIG     O1    5  -1.129   0.625  -1.585
    1LIG     C3    6  -1.258   0.576  -1.548
    1LIG     N2    7  -0.979   0.588  -1.748
    1LIG     H1    8  -0.959   0.551  -1.840
    1LIG     H2    9  -0.943   0.679  -1.724
    1LIG     C4   10  -1.411   0.422  -1.686
    1LIG     C5   11  -1.526   0.408  -1.606
    1LIG     C6   12  -1.653   0.380  -1.659
    1LIG     C7   13  -1.664   0.370  -1.799
    1LIG     C8   14  -1.553   0.391  -1.882
    1LIG     C9   15  -1.428   0.417  -1.826
    1LIG    C10   16  -1.771   0.358  -1.572
    1LIG    C11   17  -1.888   0.295  -1.620
    1LIG    C12   18  -1.998   0.276  -1.537
    1LIG     CL   19  -2.139   0.197  -1.599
    1LIG    C13   20  -1.997   0.320  -1.405
    1LIG    C14   21  -1.883   0.384  -1.355
    1LIG    C15   22  -1.772   0.401  -1.438
    1LIG    C16   23  -1.241   0.326  -1.521
    1LIG    C17   24  -1.244   0.348  -1.383
    1LIG    C18   25  -1.234   0.242  -1.292
    1LIG    C19   26  -1.217   0.112  -1.338
    1LIG    C20   27  -1.207   0.089  -1.475
    1LIG    C21   28  -1.218   0.195  -1.566
    1LIG     O2   29  -1.210  -0.001  -1.260
    1LIG    C22   30  -1.125  -0.105  -1.307
    1LIG    HC2   31  -1.265   0.563  -1.440
    1LIG    HC3   32  -1.335   0.646  -1.582
    1LIG     HC   33  -1.516   0.418  -1.499
    1LIG    HC1   34  -1.759   0.347  -1.844
    1LIG    HC4   35  -1.564   0.387  -1.989
    1LIG    HC5   36  -1.343   0.433  -1.890
    1LIG    HC6   37  -1.892   0.261  -1.722
    1LIG    HC7   38  -2.083   0.306  -1.342
    1LIG    HC8   39  -1.881   0.419  -1.253
    1LIG    HC9   40  -1.684   0.449  -1.398
    1LIG   HC10   41  -1.254   0.449  -1.345
    1LIG   HC11   42  -1.240   0.261  -1.186
    1LIG   HC12   43  -1.190  -0.011  -1.512
    1LIG   HC13   44  -1.208   0.176  -1.672
    1LIG   HC14   45  -1.104  -0.174  -1.225
    1LIG   HC15   46  -1.033  -0.062  -1.344
    1LIG   HC16   47  -1.176  -0.159  -1.387
    1LIG    H21   48  -1.038   0.483  -1.624
    1LIG    LP1   49  -2.272   0.123  -1.657
   0.00000   0.00000   0.00000
