Good ROcking Metal Altar for Chronical Sinners
   29
    1LIG     O2    1   1.949   4.003  -1.068
    1LIG     C2    2   1.946   3.934  -1.296
    1LIG     C3    3   1.892   3.949  -1.160
    1LIG     O3    4   2.013   3.905  -1.561
    1LIG     C4    5   2.186   4.066  -1.549
    1LIG     C5    6   2.258   4.156  -1.468
    1LIG     C6    7   2.225   4.043  -1.681
    1LIG     C7    8   2.372   4.220  -1.522
    1LIG     C8    9   2.335   4.108  -1.734
    1LIG     C9   10   2.409   4.197  -1.655
    1LIG    C10   11   2.024   4.026  -1.357
    1LIG    C11   12   2.067   4.160  -1.306
    1LIG    C12   13   2.070   3.991  -1.495
    1LIG    C13   14   2.217   4.179  -1.325
    1LIG     C1   15   2.458   4.439  -1.478
    1LIG     O1   16   2.439   4.304  -1.437
    1LIG     O4   17   1.770   3.892  -1.150
    1LIG    H12   18   1.715   3.899  -1.230
    1LIG     H1   19   1.924   3.848  -1.348
    1LIG     H2   20   2.171   3.977  -1.740
    1LIG     H3   21   2.363   4.091  -1.832
    1LIG     H4   22   2.491   4.245  -1.695
    1LIG     H5   23   2.044   4.167  -1.201
    1LIG     H6   24   2.016   4.236  -1.360
    1LIG     H7   25   2.244   4.278  -1.296
    1LIG     H8   26   2.268   4.107  -1.264
    1LIG     H9   27   2.512   4.492  -1.402
    1LIG    H10   28   2.363   4.485  -1.493
    1LIG    H11   29   2.514   4.441  -1.569
   0.00000   0.00000   0.00000
