GROningen MAchine for Chemical Simulation
   61
    1LIG     C1    1  -1.349   0.356  -1.668
    1LIG     C2    2  -1.466   0.285  -1.597
    1LIG     N1    3  -1.552   0.393  -1.529
    1LIG     H1    4  -1.537   0.382  -1.428
    1LIG     H2    5  -1.511   0.485  -1.550
    1LIG     C3    6  -1.702   0.405  -1.556
    1LIG     C4    7  -1.779   0.384  -1.423
    1LIG     C5    8  -1.931   0.382  -1.446
    1LIG     C6    9  -1.972   0.270  -1.541
    1LIG     C7   10  -1.894   0.273  -1.672
    1LIG     C8   11  -1.743   0.289  -1.652
    1LIG     C9   12  -1.733   0.547  -1.611
    1LIG    C10   13  -1.742   0.660  -1.527
    1LIG    C11   14  -1.739   0.790  -1.579
    1LIG    C12   15  -1.735   0.811  -1.716
    1LIG    C13   16  -1.740   0.701  -1.802
    1LIG    C14   17  -1.739   0.571  -1.750
    1LIG     O1   18  -1.388   0.494  -1.683
    1LIG     H3   19  -1.344   0.547  -1.614
    1LIG    C15   20  -1.209   0.340  -1.601
    1LIG     N2   21  -1.223   0.336  -1.455
    1LIG    C16   22  -1.209   0.449  -1.378
    1LIG     O2   23  -1.214   0.562  -1.426
    1LIG    C17   24  -1.197   0.421  -1.230
    1LIG     H4   25  -1.202   0.248  -1.408
    1LIG    C18   26  -1.139   0.209  -1.650
    1LIG    C19   27  -1.131   0.098  -1.546
    1LIG    C20   28  -1.031   0.101  -1.447
    1LIG    C21   29  -1.020  -0.004  -1.355
    1LIG     F1   30  -0.921  -0.002  -1.264
    1LIG    C22   31  -1.105  -0.112  -1.359
    1LIG    C23   32  -1.208  -0.113  -1.454
    1LIG    C24   33  -1.221  -0.009  -1.546
    1LIG     F2   34  -1.294  -0.215  -1.457
    1LIG     HC   35  -1.341   0.314  -1.769
    1LIG    HC2   36  -1.526   0.230  -1.670
    1LIG    HC3   37  -1.427   0.216  -1.522
    1LIG    HC4   38  -1.754   0.465  -1.354
    1LIG    HC5   39  -1.749   0.289  -1.379
    1LIG    HC6   40  -1.981   0.368  -1.350
    1LIG    HC7   41  -1.962   0.478  -1.488
    1LIG    HC8   42  -2.078   0.280  -1.563
    1LIG    HC9   43  -1.955   0.175  -1.491
    1LIG   HC10   44  -1.912   0.179  -1.724
    1LIG   HC11   45  -1.931   0.355  -1.733
    1LIG   HC12   46  -1.698   0.308  -1.750
    1LIG   HC13   47  -1.702   0.196  -1.613
    1LIG    HC1   48  -1.751   0.646  -1.421
    1LIG   HC14   49  -1.740   0.875  -1.512
    1LIG   HC15   50  -1.729   0.911  -1.756
    1LIG   HC16   51  -1.743   0.716  -1.909
    1LIG   HC17   52  -1.744   0.487  -1.818
    1LIG   HC18   53  -1.147   0.425  -1.628
    1LIG   HC19   54  -1.187   0.515  -1.176
    1LIG   HC20   55  -1.286   0.369  -1.196
    1LIG   HC21   56  -1.109   0.359  -1.212
    1LIG   HC22   57  -1.037   0.234  -1.680
    1LIG   HC23   58  -1.192   0.171  -1.736
    1LIG   HC24   59  -0.962   0.184  -1.441
    1LIG   HC25   60  -1.094  -0.195  -1.290
    1LIG   HC26   61  -1.302  -0.011  -1.617
   0.00000   0.00000   0.00000
