; Created by cgenff_charmm2gmx.py

[ moleculetype ]
; Name			   nrexcl
LIG				 3

[ atoms ]
;	 nr		  type	resnr residue  atom   cgnr	   charge		mass  typeB    chargeB		massB
; residue	 1 LIG rtp LIG q	qsum
     1      CG311      1    LIG     C1      1      0.089     12.011   ;
     2      CG324      1    LIG     C2      2      0.208     12.011   ;
     3      NG3P2      1    LIG     N1      3     -0.450     14.007   ;
     4       HGP2      1    LIG     H1      4      0.341      1.008   ;
     5       HGP2      1    LIG     H2      5      0.341      1.008   ;
     6      CG301      1    LIG     C3      6      0.295     12.011   ;
     7      CG321      1    LIG     C4      7     -0.147     12.011   ;
     8      CG321      1    LIG     C5      8     -0.202     12.011   ;
     9      CG321      1    LIG     C6      9     -0.176     12.011   ;
    10      CG321      1    LIG     C7     10     -0.202     12.011   ;
    11      CG321      1    LIG     C8     11     -0.147     12.011   ;
    12     CG2R61      1    LIG     C9     12      0.082     12.011   ;
    13     CG2R61      1    LIG    C10     13     -0.129     12.011   ;
    14     CG2R61      1    LIG    C11     14     -0.113     12.011   ;
    15     CG2R61      1    LIG    C12     15     -0.116     12.011   ;
    16     CG2R61      1    LIG    C13     16     -0.113     12.011   ;
    17     CG2R61      1    LIG    C14     17     -0.129     12.011   ;
    18      OG311      1    LIG     O1     18     -0.625     15.999   ;
    19       HGP1      1    LIG     H3     19      0.415      1.008   ;
    20      CG311      1    LIG    C15     20     -0.007     12.011   ;
    21      NG2S1      1    LIG     N2     21     -0.339     14.007   ;
    22      CG2O1      1    LIG    C16     22      0.488     12.011   ;
    23      OG2D1      1    LIG     O2     23     -0.509     15.999   ;
    24      CG331      1    LIG    C17     24     -0.270     12.011   ;
    25       HGP1      1    LIG     H4     25      0.261      1.008   ;
    26      CG321      1    LIG    C18     26     -0.153     12.011   ;
    27     CG2R61      1    LIG    C19     27      0.057     12.011   ;
    28     CG2R61      1    LIG    C20     28     -0.218     12.011   ;
    29     CG2R66      1    LIG    C21     29      0.261     12.011   ;
    30       FGR1      1    LIG     F1     30     -0.210     18.998   ;
    31     CG2R61      1    LIG    C22     31     -0.240     12.011   ;
    32     CG2R66      1    LIG    C23     32      0.261     12.011   ;
    33     CG2R61      1    LIG    C24     33     -0.218     12.011   ;
    34       FGR1      1    LIG     F2     34     -0.210     18.998   ;
    35       HGA1      1    LIG     HC     35      0.090      1.008   ;
    36       HGA2      1    LIG    HC2     36      0.090      1.008   ;
    37       HGA2      1    LIG    HC3     37      0.090      1.008   ;
    38       HGA2      1    LIG    HC4     38      0.090      1.008   ;
    39       HGA2      1    LIG    HC5     39      0.090      1.008   ;
    40       HGA2      1    LIG    HC6     40      0.090      1.008   ;
    41       HGA2      1    LIG    HC7     41      0.090      1.008   ;
    42       HGA2      1    LIG    HC8     42      0.090      1.008   ;
    43       HGA2      1    LIG    HC9     43      0.090      1.008   ;
    44       HGA2      1    LIG   HC10     44      0.090      1.008   ;
    45       HGA2      1    LIG   HC11     45      0.090      1.008   ;
    46       HGA2      1    LIG   HC12     46      0.090      1.008   ;
    47       HGA2      1    LIG   HC13     47      0.090      1.008   ;
    48      HGR61      1    LIG    HC1     48      0.116      1.008   ;
    49      HGR61      1    LIG   HC14     49      0.116      1.008   ;
    50      HGR61      1    LIG   HC15     50      0.116      1.008   ;
    51      HGR61      1    LIG   HC16     51      0.116      1.008   ;
    52      HGR61      1    LIG   HC17     52      0.116      1.008   ;
    53       HGA1      1    LIG   HC18     53      0.090      1.008   ;
    54       HGA3      1    LIG   HC19     54      0.090      1.008   ;
    55       HGA3      1    LIG   HC20     55      0.090      1.008   ;
    56       HGA3      1    LIG   HC21     56      0.090      1.008   ;
    57       HGA2      1    LIG   HC22     57      0.090      1.008   ;
    58       HGA2      1    LIG   HC23     58      0.090      1.008   ;
    59      HGR62      1    LIG   HC24     59      0.174      1.008   ;
    60      HGR62      1    LIG   HC25     60      0.186      1.008   ;
    61      HGR62      1    LIG   HC26     61      0.174      1.008   ;

[ bonds ]
;	ai	  aj funct			  c0			c1			  c2			c3
    1    20	 1 ;       CG311      CG311
    1    18	 1 ;       CG311      OG311
    1     2	 1 ;       CG311      CG324
    1    35	 1 ;       CG311       HGA1
    2     3	 1 ;       CG324      NG3P2
    2    36	 1 ;       CG324       HGA2
    2    37	 1 ;       CG324       HGA2
    3     5	 1 ;       NG3P2       HGP2
    3     4	 1 ;       NG3P2       HGP2
    3     6	 1 ;       NG3P2      CG301
    6    12	 1 ;       CG301     CG2R61
    6    11	 1 ;       CG301      CG321
    6     7	 1 ;       CG301      CG321
    7     8	 1 ;       CG321      CG321
    7    38	 1 ;       CG321       HGA2
    7    39	 1 ;       CG321       HGA2
    8     9	 1 ;       CG321      CG321
    8    40	 1 ;       CG321       HGA2
    8    41	 1 ;       CG321       HGA2
    9    10	 1 ;       CG321      CG321
    9    42	 1 ;       CG321       HGA2
    9    43	 1 ;       CG321       HGA2
   10    11	 1 ;       CG321      CG321
   10    44	 1 ;       CG321       HGA2
   10    45	 1 ;       CG321       HGA2
   11    46	 1 ;       CG321       HGA2
   11    47	 1 ;       CG321       HGA2
   12    17	 1 ;      CG2R61     CG2R61
   12    13	 1 ;      CG2R61     CG2R61
   13    14	 1 ;      CG2R61     CG2R61
   13    48	 1 ;      CG2R61      HGR61
   14    15	 1 ;      CG2R61     CG2R61
   14    49	 1 ;      CG2R61      HGR61
   15    16	 1 ;      CG2R61     CG2R61
   15    50	 1 ;      CG2R61      HGR61
   16    17	 1 ;      CG2R61     CG2R61
   16    51	 1 ;      CG2R61      HGR61
   17    52	 1 ;      CG2R61      HGR61
   18    19	 1 ;       OG311       HGP1
   20    26	 1 ;       CG311      CG321
   20    21	 1 ;       CG311      NG2S1
   20    53	 1 ;       CG311       HGA1
   21    22	 1 ;       NG2S1      CG2O1
   21    25	 1 ;       NG2S1       HGP1
   22    23	 1 ;       CG2O1      OG2D1
   22    24	 1 ;       CG2O1      CG331
   24    54	 1 ;       CG331       HGA3
   24    55	 1 ;       CG331       HGA3
   24    56	 1 ;       CG331       HGA3
   26    27	 1 ;       CG321     CG2R61
   26    57	 1 ;       CG321       HGA2
   26    58	 1 ;       CG321       HGA2
   27    28	 1 ;      CG2R61     CG2R61
   27    33	 1 ;      CG2R61     CG2R61
   28    29	 1 ;      CG2R61     CG2R66
   28    59	 1 ;      CG2R61      HGR62
   29    30	 1 ;      CG2R66       FGR1
   29    31	 1 ;      CG2R66     CG2R61
   31    32	 1 ;      CG2R61     CG2R66
   31    60	 1 ;      CG2R61      HGR62
   32    33	 1 ;      CG2R66     CG2R61
   32    34	 1 ;      CG2R66       FGR1
   33    61	 1 ;      CG2R61      HGR62

[ pairs ]
;	ai	  aj funct			  c0			c1			  c2			c3
    1     5	 1
    1     4	 1
    1     6	 1
    1    27	 1
    1    57	 1
    1    58	 1
    1    22	 1
    1    25	 1
    2    26	 1
    2    21	 1
    2    53	 1
    2    19	 1
    2    12	 1
    2    11	 1
    2     7	 1
    3    20	 1
    3    18	 1
    3    35	 1
    3    17	 1
    3    13	 1
    3    10	 1
    3    46	 1
    3    47	 1
    3     8	 1
    3    38	 1
    3    39	 1
    4    36	 1
    4    37	 1
    4    12	 1
    4    11	 1
    4     7	 1
    5    36	 1
    5    37	 1
    5    12	 1
    5    11	 1
    5     7	 1
    6    36	 1
    6    37	 1
    6     9	 1
    6    40	 1
    6    41	 1
    6    44	 1
    6    45	 1
    6    16	 1
    6    52	 1
    6    14	 1
    6    48	 1
    7    17	 1
    7    13	 1
    7    10	 1
    7    46	 1
    7    47	 1
    7    42	 1
    7    43	 1
    8    12	 1
    8    11	 1
    8    44	 1
    8    45	 1
    9    38	 1
    9    39	 1
    9    46	 1
    9    47	 1
   10    12	 1
   10    40	 1
   10    41	 1
   11    17	 1
   11    13	 1
   11    38	 1
   11    39	 1
   11    42	 1
   11    43	 1
   12    46	 1
   12    47	 1
   12    38	 1
   12    39	 1
   12    15	 1
   12    49	 1
   12    51	 1
   13    16	 1
   13    52	 1
   13    50	 1
   14    17	 1
   14    51	 1
   15    48	 1
   15    52	 1
   16    49	 1
   17    48	 1
   17    50	 1
   18    26	 1
   18    21	 1
   18    53	 1
   18    36	 1
   18    37	 1
   19    20	 1
   19    35	 1
   20    36	 1
   20    37	 1
   20    23	 1
   20    24	 1
   20    28	 1
   20    33	 1
   21    35	 1
   21    27	 1
   21    57	 1
   21    58	 1
   21    54	 1
   21    55	 1
   21    56	 1
   22    26	 1
   22    53	 1
   23    25	 1
   23    54	 1
   23    55	 1
   23    56	 1
   24    25	 1
   25    26	 1
   25    53	 1
   26    35	 1
   26    29	 1
   26    59	 1
   26    32	 1
   26    61	 1
   27    53	 1
   27    30	 1
   27    31	 1
   27    34	 1
   28    57	 1
   28    58	 1
   28    32	 1
   28    61	 1
   28    60	 1
   29    33	 1
   29    34	 1
   30    59	 1
   30    32	 1
   30    60	 1
   31    59	 1
   31    61	 1
   33    57	 1
   33    58	 1
   33    59	 1
   33    60	 1
   34    60	 1
   34    61	 1
   35    53	 1
   35    36	 1
   35    37	 1
   38    40	 1
   38    41	 1
   39    40	 1
   39    41	 1
   40    42	 1
   40    43	 1
   41    42	 1
   41    43	 1
   42    44	 1
   42    45	 1
   43    44	 1
   43    45	 1
   44    46	 1
   44    47	 1
   45    46	 1
   45    47	 1
   48    49	 1
   49    50	 1
   50    51	 1
   51    52	 1
   53    57	 1
   53    58	 1

[ angles ]
;	ai	  aj	ak funct			c0			  c1			c2			  c3
   20     1    18	5 ;      CG311      CG311      OG311
   20     1     2	5 ;      CG311      CG311      CG324
   20     1    35	5 ;      CG311      CG311       HGA1
   18     1     2	5 ;      OG311      CG311      CG324
   18     1    35	5 ;      OG311      CG311       HGA1
    2     1    35	5 ;      CG324      CG311       HGA1
    1     2     3	5 ;      CG311      CG324      NG3P2
    1     2    36	5 ;      CG311      CG324       HGA2
    1     2    37	5 ;      CG311      CG324       HGA2
    3     2    36	5 ;      NG3P2      CG324       HGA2
    3     2    37	5 ;      NG3P2      CG324       HGA2
   36     2    37	5 ;       HGA2      CG324       HGA2
    2     3     5	5 ;      CG324      NG3P2       HGP2
    2     3     4	5 ;      CG324      NG3P2       HGP2
    2     3     6	5 ;      CG324      NG3P2      CG301
    5     3     4	5 ;       HGP2      NG3P2       HGP2
    5     3     6	5 ;       HGP2      NG3P2      CG301
    4     3     6	5 ;       HGP2      NG3P2      CG301
    3     6    12	5 ;      NG3P2      CG301     CG2R61
    3     6    11	5 ;      NG3P2      CG301      CG321
    3     6     7	5 ;      NG3P2      CG301      CG321
   12     6    11	5 ;     CG2R61      CG301      CG321
   12     6     7	5 ;     CG2R61      CG301      CG321
   11     6     7	5 ;      CG321      CG301      CG321
    6     7     8	5 ;      CG301      CG321      CG321
    6     7    38	5 ;      CG301      CG321       HGA2
    6     7    39	5 ;      CG301      CG321       HGA2
    8     7    38	5 ;      CG321      CG321       HGA2
    8     7    39	5 ;      CG321      CG321       HGA2
   38     7    39	5 ;       HGA2      CG321       HGA2
    7     8     9	5 ;      CG321      CG321      CG321
    7     8    40	5 ;      CG321      CG321       HGA2
    7     8    41	5 ;      CG321      CG321       HGA2
    9     8    40	5 ;      CG321      CG321       HGA2
    9     8    41	5 ;      CG321      CG321       HGA2
   40     8    41	5 ;       HGA2      CG321       HGA2
   10     9     8	5 ;      CG321      CG321      CG321
   10     9    42	5 ;      CG321      CG321       HGA2
   10     9    43	5 ;      CG321      CG321       HGA2
    8     9    42	5 ;      CG321      CG321       HGA2
    8     9    43	5 ;      CG321      CG321       HGA2
   42     9    43	5 ;       HGA2      CG321       HGA2
   11    10     9	5 ;      CG321      CG321      CG321
   11    10    44	5 ;      CG321      CG321       HGA2
   11    10    45	5 ;      CG321      CG321       HGA2
    9    10    44	5 ;      CG321      CG321       HGA2
    9    10    45	5 ;      CG321      CG321       HGA2
   44    10    45	5 ;       HGA2      CG321       HGA2
    6    11    10	5 ;      CG301      CG321      CG321
    6    11    46	5 ;      CG301      CG321       HGA2
    6    11    47	5 ;      CG301      CG321       HGA2
   10    11    46	5 ;      CG321      CG321       HGA2
   10    11    47	5 ;      CG321      CG321       HGA2
   46    11    47	5 ;       HGA2      CG321       HGA2
   17    12    13	5 ;     CG2R61     CG2R61     CG2R61
   17    12     6	5 ;     CG2R61     CG2R61      CG301
   13    12     6	5 ;     CG2R61     CG2R61      CG301
   14    13    12	5 ;     CG2R61     CG2R61     CG2R61
   14    13    48	5 ;     CG2R61     CG2R61      HGR61
   12    13    48	5 ;     CG2R61     CG2R61      HGR61
   15    14    13	5 ;     CG2R61     CG2R61     CG2R61
   15    14    49	5 ;     CG2R61     CG2R61      HGR61
   13    14    49	5 ;     CG2R61     CG2R61      HGR61
   16    15    14	5 ;     CG2R61     CG2R61     CG2R61
   16    15    50	5 ;     CG2R61     CG2R61      HGR61
   14    15    50	5 ;     CG2R61     CG2R61      HGR61
   15    16    17	5 ;     CG2R61     CG2R61     CG2R61
   15    16    51	5 ;     CG2R61     CG2R61      HGR61
   17    16    51	5 ;     CG2R61     CG2R61      HGR61
   16    17    12	5 ;     CG2R61     CG2R61     CG2R61
   16    17    52	5 ;     CG2R61     CG2R61      HGR61
   12    17    52	5 ;     CG2R61     CG2R61      HGR61
   19    18     1	5 ;       HGP1      OG311      CG311
   26    20     1	5 ;      CG321      CG311      CG311
   26    20    21	5 ;      CG321      CG311      NG2S1
   26    20    53	5 ;      CG321      CG311       HGA1
    1    20    21	5 ;      CG311      CG311      NG2S1
    1    20    53	5 ;      CG311      CG311       HGA1
   21    20    53	5 ;      NG2S1      CG311       HGA1
   20    21    22	5 ;      CG311      NG2S1      CG2O1
   20    21    25	5 ;      CG311      NG2S1       HGP1
   22    21    25	5 ;      CG2O1      NG2S1       HGP1
   23    22    21	5 ;      OG2D1      CG2O1      NG2S1
   23    22    24	5 ;      OG2D1      CG2O1      CG331
   21    22    24	5 ;      NG2S1      CG2O1      CG331
   22    24    54	5 ;      CG2O1      CG331       HGA3
   22    24    55	5 ;      CG2O1      CG331       HGA3
   22    24    56	5 ;      CG2O1      CG331       HGA3
   54    24    55	5 ;       HGA3      CG331       HGA3
   54    24    56	5 ;       HGA3      CG331       HGA3
   55    24    56	5 ;       HGA3      CG331       HGA3
   20    26    27	5 ;      CG311      CG321     CG2R61
   20    26    57	5 ;      CG311      CG321       HGA2
   20    26    58	5 ;      CG311      CG321       HGA2
   27    26    57	5 ;     CG2R61      CG321       HGA2
   27    26    58	5 ;     CG2R61      CG321       HGA2
   57    26    58	5 ;       HGA2      CG321       HGA2
   26    27    28	5 ;      CG321     CG2R61     CG2R61
   26    27    33	5 ;      CG321     CG2R61     CG2R61
   28    27    33	5 ;     CG2R61     CG2R61     CG2R61
   27    28    29	5 ;     CG2R61     CG2R61     CG2R66
   27    28    59	5 ;     CG2R61     CG2R61      HGR62
   29    28    59	5 ;     CG2R66     CG2R61      HGR62
   28    29    30	5 ;     CG2R61     CG2R66       FGR1
   28    29    31	5 ;     CG2R61     CG2R66     CG2R61
   30    29    31	5 ;       FGR1     CG2R66     CG2R61
   29    31    32	5 ;     CG2R66     CG2R61     CG2R66
   29    31    60	5 ;     CG2R66     CG2R61      HGR62
   32    31    60	5 ;     CG2R66     CG2R61      HGR62
   33    32    31	5 ;     CG2R61     CG2R66     CG2R61
   33    32    34	5 ;     CG2R61     CG2R66       FGR1
   31    32    34	5 ;     CG2R61     CG2R66       FGR1
   27    33    32	5 ;     CG2R61     CG2R61     CG2R66
   27    33    61	5 ;     CG2R61     CG2R61      HGR62
   32    33    61	5 ;     CG2R66     CG2R61      HGR62

[ dihedrals ]
;	ai	  aj	ak	  al funct			  c0			c1			  c2			c3			  c4			c5
   18     1    20    26	 9 ;      OG311      CG311      CG311      CG321
   18     1    20    21	 9 ;      OG311      CG311      CG311      NG2S1
   18     1    20    53	 9 ;      OG311      CG311      CG311       HGA1
    2     1    20    26	 9 ;      CG324      CG311      CG311      CG321
    2     1    20    21	 9 ;      CG324      CG311      CG311      NG2S1
    2     1    20    53	 9 ;      CG324      CG311      CG311       HGA1
   35     1    20    26	 9 ;       HGA1      CG311      CG311      CG321
   35     1    20    21	 9 ;       HGA1      CG311      CG311      NG2S1
   35     1    20    53	 9 ;       HGA1      CG311      CG311       HGA1
   20     1    18    19	 9 ;      CG311      CG311      OG311       HGP1
    2     1    18    19	 9 ;      CG324      CG311      OG311       HGP1
   35     1    18    19	 9 ;       HGA1      CG311      OG311       HGP1
   20     1     2     3	 9 ;      CG311      CG311      CG324      NG3P2
   20     1     2    36	 9 ;      CG311      CG311      CG324       HGA2
   20     1     2    37	 9 ;      CG311      CG311      CG324       HGA2
   18     1     2     3	 9 ;      OG311      CG311      CG324      NG3P2
   18     1     2    36	 9 ;      OG311      CG311      CG324       HGA2
   18     1     2    37	 9 ;      OG311      CG311      CG324       HGA2
   35     1     2     3	 9 ;       HGA1      CG311      CG324      NG3P2
   35     1     2    36	 9 ;       HGA1      CG311      CG324       HGA2
   35     1     2    37	 9 ;       HGA1      CG311      CG324       HGA2
    1     2     3     5	 9 ;      CG311      CG324      NG3P2       HGP2
    1     2     3     4	 9 ;      CG311      CG324      NG3P2       HGP2
    1     2     3     6	 9 ;      CG311      CG324      NG3P2      CG301
   36     2     3     5	 9 ;       HGA2      CG324      NG3P2       HGP2
   36     2     3     4	 9 ;       HGA2      CG324      NG3P2       HGP2
   36     2     3     6	 9 ;       HGA2      CG324      NG3P2      CG301
   37     2     3     5	 9 ;       HGA2      CG324      NG3P2       HGP2
   37     2     3     4	 9 ;       HGA2      CG324      NG3P2       HGP2
   37     2     3     6	 9 ;       HGA2      CG324      NG3P2      CG301
    2     3     6    12	 9 ;      CG324      NG3P2      CG301     CG2R61
    2     3     6    11	 9 ;      CG324      NG3P2      CG301      CG321
    2     3     6     7	 9 ;      CG324      NG3P2      CG301      CG321
    5     3     6    12	 9 ;       HGP2      NG3P2      CG301     CG2R61
    5     3     6    11	 9 ;       HGP2      NG3P2      CG301      CG321
    5     3     6     7	 9 ;       HGP2      NG3P2      CG301      CG321
    4     3     6    12	 9 ;       HGP2      NG3P2      CG301     CG2R61
    4     3     6    11	 9 ;       HGP2      NG3P2      CG301      CG321
    4     3     6     7	 9 ;       HGP2      NG3P2      CG301      CG321
    3     6    12    17	 9 ;      NG3P2      CG301     CG2R61     CG2R61
    3     6    12    13	 9 ;      NG3P2      CG301     CG2R61     CG2R61
   11     6    12    17	 9 ;      CG321      CG301     CG2R61     CG2R61
   11     6    12    13	 9 ;      CG321      CG301     CG2R61     CG2R61
    7     6    12    17	 9 ;      CG321      CG301     CG2R61     CG2R61
    7     6    12    13	 9 ;      CG321      CG301     CG2R61     CG2R61
    3     6    11    10	 9 ;      NG3P2      CG301      CG321      CG321
    3     6    11    46	 9 ;      NG3P2      CG301      CG321       HGA2
    3     6    11    47	 9 ;      NG3P2      CG301      CG321       HGA2
   12     6    11    10	 9 ;     CG2R61      CG301      CG321      CG321
   12     6    11    46	 9 ;     CG2R61      CG301      CG321       HGA2
   12     6    11    47	 9 ;     CG2R61      CG301      CG321       HGA2
    7     6    11    10	 9 ;      CG321      CG301      CG321      CG321
    7     6    11    46	 9 ;      CG321      CG301      CG321       HGA2
    7     6    11    47	 9 ;      CG321      CG301      CG321       HGA2
    3     6     7     8	 9 ;      NG3P2      CG301      CG321      CG321
    3     6     7    38	 9 ;      NG3P2      CG301      CG321       HGA2
    3     6     7    39	 9 ;      NG3P2      CG301      CG321       HGA2
   12     6     7     8	 9 ;     CG2R61      CG301      CG321      CG321
   12     6     7    38	 9 ;     CG2R61      CG301      CG321       HGA2
   12     6     7    39	 9 ;     CG2R61      CG301      CG321       HGA2
   11     6     7     8	 9 ;      CG321      CG301      CG321      CG321
   11     6     7    38	 9 ;      CG321      CG301      CG321       HGA2
   11     6     7    39	 9 ;      CG321      CG301      CG321       HGA2
    6     7     8     9	 9 ;      CG301      CG321      CG321      CG321
    6     7     8    40	 9 ;      CG301      CG321      CG321       HGA2
    6     7     8    41	 9 ;      CG301      CG321      CG321       HGA2
   38     7     8     9	 9 ;       HGA2      CG321      CG321      CG321
   38     7     8    40	 9 ;       HGA2      CG321      CG321       HGA2
   38     7     8    41	 9 ;       HGA2      CG321      CG321       HGA2
   39     7     8     9	 9 ;       HGA2      CG321      CG321      CG321
   39     7     8    40	 9 ;       HGA2      CG321      CG321       HGA2
   39     7     8    41	 9 ;       HGA2      CG321      CG321       HGA2
    7     8     9    10	 9 ;      CG321      CG321      CG321      CG321
    7     8     9    42	 9 ;      CG321      CG321      CG321       HGA2
    7     8     9    43	 9 ;      CG321      CG321      CG321       HGA2
   40     8     9    10	 9 ;       HGA2      CG321      CG321      CG321
   40     8     9    42	 9 ;       HGA2      CG321      CG321       HGA2
   40     8     9    43	 9 ;       HGA2      CG321      CG321       HGA2
   41     8     9    10	 9 ;       HGA2      CG321      CG321      CG321
   41     8     9    42	 9 ;       HGA2      CG321      CG321       HGA2
   41     8     9    43	 9 ;       HGA2      CG321      CG321       HGA2
    8     9    10    11	 9 ;      CG321      CG321      CG321      CG321
    8     9    10    44	 9 ;      CG321      CG321      CG321       HGA2
    8     9    10    45	 9 ;      CG321      CG321      CG321       HGA2
   42     9    10    11	 9 ;       HGA2      CG321      CG321      CG321
   42     9    10    44	 9 ;       HGA2      CG321      CG321       HGA2
   42     9    10    45	 9 ;       HGA2      CG321      CG321       HGA2
   43     9    10    11	 9 ;       HGA2      CG321      CG321      CG321
   43     9    10    44	 9 ;       HGA2      CG321      CG321       HGA2
   43     9    10    45	 9 ;       HGA2      CG321      CG321       HGA2
    9    10    11     6	 9 ;      CG321      CG321      CG321      CG301
    9    10    11    46	 9 ;      CG321      CG321      CG321       HGA2
    9    10    11    47	 9 ;      CG321      CG321      CG321       HGA2
   44    10    11     6	 9 ;       HGA2      CG321      CG321      CG301
   44    10    11    46	 9 ;       HGA2      CG321      CG321       HGA2
   44    10    11    47	 9 ;       HGA2      CG321      CG321       HGA2
   45    10    11     6	 9 ;       HGA2      CG321      CG321      CG301
   45    10    11    46	 9 ;       HGA2      CG321      CG321       HGA2
   45    10    11    47	 9 ;       HGA2      CG321      CG321       HGA2
   13    12    17    16	 9 ;     CG2R61     CG2R61     CG2R61     CG2R61
   13    12    17    52	 9 ;     CG2R61     CG2R61     CG2R61      HGR61
    6    12    17    16	 9 ;      CG301     CG2R61     CG2R61     CG2R61
    6    12    17    52	 9 ;      CG301     CG2R61     CG2R61      HGR61
   17    12    13    14	 9 ;     CG2R61     CG2R61     CG2R61     CG2R61
   17    12    13    48	 9 ;     CG2R61     CG2R61     CG2R61      HGR61
    6    12    13    14	 9 ;      CG301     CG2R61     CG2R61     CG2R61
    6    12    13    48	 9 ;      CG301     CG2R61     CG2R61      HGR61
   12    13    14    15	 9 ;     CG2R61     CG2R61     CG2R61     CG2R61
   12    13    14    49	 9 ;     CG2R61     CG2R61     CG2R61      HGR61
   48    13    14    15	 9 ;      HGR61     CG2R61     CG2R61     CG2R61
   48    13    14    49	 9 ;      HGR61     CG2R61     CG2R61      HGR61
   13    14    15    16	 9 ;     CG2R61     CG2R61     CG2R61     CG2R61
   13    14    15    50	 9 ;     CG2R61     CG2R61     CG2R61      HGR61
   49    14    15    16	 9 ;      HGR61     CG2R61     CG2R61     CG2R61
   49    14    15    50	 9 ;      HGR61     CG2R61     CG2R61      HGR61
   14    15    16    17	 9 ;     CG2R61     CG2R61     CG2R61     CG2R61
   14    15    16    51	 9 ;     CG2R61     CG2R61     CG2R61      HGR61
   50    15    16    17	 9 ;      HGR61     CG2R61     CG2R61     CG2R61
   50    15    16    51	 9 ;      HGR61     CG2R61     CG2R61      HGR61
   15    16    17    12	 9 ;     CG2R61     CG2R61     CG2R61     CG2R61
   15    16    17    52	 9 ;     CG2R61     CG2R61     CG2R61      HGR61
   51    16    17    12	 9 ;      HGR61     CG2R61     CG2R61     CG2R61
   51    16    17    52	 9 ;      HGR61     CG2R61     CG2R61      HGR61
    1    20    26    27	 9 ;      CG311      CG311      CG321     CG2R61
    1    20    26    57	 9 ;      CG311      CG311      CG321       HGA2
    1    20    26    58	 9 ;      CG311      CG311      CG321       HGA2
   21    20    26    27	 9 ;      NG2S1      CG311      CG321     CG2R61
   21    20    26    57	 9 ;      NG2S1      CG311      CG321       HGA2
   21    20    26    58	 9 ;      NG2S1      CG311      CG321       HGA2
   53    20    26    27	 9 ;       HGA1      CG311      CG321     CG2R61
   53    20    26    57	 9 ;       HGA1      CG311      CG321       HGA2
   53    20    26    58	 9 ;       HGA1      CG311      CG321       HGA2
   26    20    21    22	 9 ;      CG321      CG311      NG2S1      CG2O1
   26    20    21    25	 9 ;      CG321      CG311      NG2S1       HGP1
    1    20    21    22	 9 ;      CG311      CG311      NG2S1      CG2O1
    1    20    21    25	 9 ;      CG311      CG311      NG2S1       HGP1
   53    20    21    22	 9 ;       HGA1      CG311      NG2S1      CG2O1
   53    20    21    25	 9 ;       HGA1      CG311      NG2S1       HGP1
   20    21    22    23	 9 ;      CG311      NG2S1      CG2O1      OG2D1
   20    21    22    24	 9 ;      CG311      NG2S1      CG2O1      CG331
   25    21    22    23	 9 ;       HGP1      NG2S1      CG2O1      OG2D1
   25    21    22    24	 9 ;       HGP1      NG2S1      CG2O1      CG331
   23    22    24    54	 9 ;      OG2D1      CG2O1      CG331       HGA3
   23    22    24    55	 9 ;      OG2D1      CG2O1      CG331       HGA3
   23    22    24    56	 9 ;      OG2D1      CG2O1      CG331       HGA3
   21    22    24    54	 9 ;      NG2S1      CG2O1      CG331       HGA3
   21    22    24    55	 9 ;      NG2S1      CG2O1      CG331       HGA3
   21    22    24    56	 9 ;      NG2S1      CG2O1      CG331       HGA3
   20    26    27    28	 9 ;      CG311      CG321     CG2R61     CG2R61
   20    26    27    33	 9 ;      CG311      CG321     CG2R61     CG2R61
   57    26    27    28	 9 ;       HGA2      CG321     CG2R61     CG2R61
   57    26    27    33	 9 ;       HGA2      CG321     CG2R61     CG2R61
   58    26    27    28	 9 ;       HGA2      CG321     CG2R61     CG2R61
   58    26    27    33	 9 ;       HGA2      CG321     CG2R61     CG2R61
   26    27    28    29	 9 ;      CG321     CG2R61     CG2R61     CG2R66
   26    27    28    59	 9 ;      CG321     CG2R61     CG2R61      HGR62
   33    27    28    29	 9 ;     CG2R61     CG2R61     CG2R61     CG2R66
   33    27    28    59	 9 ;     CG2R61     CG2R61     CG2R61      HGR62
   26    27    33    32	 9 ;      CG321     CG2R61     CG2R61     CG2R66
   26    27    33    61	 9 ;      CG321     CG2R61     CG2R61      HGR62
   28    27    33    32	 9 ;     CG2R61     CG2R61     CG2R61     CG2R66
   28    27    33    61	 9 ;     CG2R61     CG2R61     CG2R61      HGR62
   27    28    29    30	 9 ;     CG2R61     CG2R61     CG2R66       FGR1
   27    28    29    31	 9 ;     CG2R61     CG2R61     CG2R66     CG2R61
   59    28    29    30	 9 ;      HGR62     CG2R61     CG2R66       FGR1
   59    28    29    31	 9 ;      HGR62     CG2R61     CG2R66     CG2R61
   28    29    31    32	 9 ;     CG2R61     CG2R66     CG2R61     CG2R66
   28    29    31    60	 9 ;     CG2R61     CG2R66     CG2R61      HGR62
   30    29    31    32	 9 ;       FGR1     CG2R66     CG2R61     CG2R66
   30    29    31    60	 9 ;       FGR1     CG2R66     CG2R61      HGR62
   29    31    32    33	 9 ;     CG2R66     CG2R61     CG2R66     CG2R61
   29    31    32    34	 9 ;     CG2R66     CG2R61     CG2R66       FGR1
   60    31    32    33	 9 ;      HGR62     CG2R61     CG2R66     CG2R61
   60    31    32    34	 9 ;      HGR62     CG2R61     CG2R66       FGR1
   31    32    33    27	 9 ;     CG2R61     CG2R66     CG2R61     CG2R61
   31    32    33    61	 9 ;     CG2R61     CG2R66     CG2R61      HGR62
   34    32    33    27	 9 ;       FGR1     CG2R66     CG2R61     CG2R61
   34    32    33    61	 9 ;       FGR1     CG2R66     CG2R61      HGR62

[ dihedrals ]
;	ai	  aj	ak	  al funct			  c0			c1			  c2			c3
   22    24    21    23	 2

