Gromacs Runs One Microsecond At Cannonball Speeds
   54
    1LIG     N1    1  -1.199   0.358  -1.488
    1LIG     H1    2  -1.132   0.370  -1.413
    1LIG     C1    3  -1.171   0.419  -1.609
    1LIG     N2    4  -1.093   0.359  -1.695
    1LIG     C2    5  -1.069   0.426  -1.826
    1LIG    HN1    6  -1.048   0.270  -1.673
    1LIG     C3    7  -1.200   0.489  -1.880
    1LIG     C4    8  -1.021   0.318  -1.925
    1LIG     C5    9  -0.957   0.529  -1.810
    1LIG     C6   10  -1.256   0.582  -1.777
    1LIG     C7   11  -1.322   0.701  -1.814
    1LIG     C8   12  -1.238   0.550  -1.642
    1LIG     C9   13  -1.365   0.789  -1.714
    1LIG     CL   14  -1.444   0.935  -1.758
    1LIG    C10   15  -1.341   0.760  -1.580
    1LIG    C11   16  -1.276   0.641  -1.543
    1LIG    C12   17  -1.299   0.253  -1.467
    1LIG    C13   18  -1.368   0.213  -1.599
    1LIG    C14   19  -1.509   0.266  -1.615
    1LIG    C15   20  -1.595   0.209  -1.710
    1LIG    C16   21  -1.730   0.246  -1.714
    1LIG    C17   22  -1.779   0.342  -1.626
    1LIG    C18   23  -1.693   0.404  -1.536
    1LIG    C19   24  -1.558   0.366  -1.530
    1LIG    C20   25  -1.239   0.132  -1.396
    1LIG     N3   26  -1.145   0.061  -1.459
    1LIG    C21   27  -1.108  -0.037  -1.376
    1LIG     H2   28  -1.119   0.073  -1.556
    1LIG     O1   29  -1.178  -0.023  -1.260
    1LIG     O2   30  -1.027  -0.125  -1.400
    1LIG     N4   31  -1.265   0.090  -1.278
    1LIG    HN2   32  -1.332   0.128  -1.211
    1LIG    HC2   33  -1.178   0.544  -1.972
    1LIG    HC3   34  -1.272   0.410  -1.901
    1LIG    HC1   35  -1.100   0.244  -1.938
    1LIG    HC4   36  -0.999   0.365  -2.021
    1LIG    HC5   37  -0.932   0.271  -1.885
    1LIG    HC6   38  -0.988   0.607  -1.740
    1LIG    HC7   39  -0.935   0.574  -1.906
    1LIG    HC8   40  -0.867   0.480  -1.771
    1LIG     HC   41  -1.339   0.724  -1.918
    1LIG    HC9   42  -1.372   0.830  -1.504
    1LIG   HC10   43  -1.255   0.621  -1.439
    1LIG   HC11   44  -1.376   0.294  -1.401
    1LIG   HC12   45  -1.307   0.252  -1.681
    1LIG   HC13   46  -1.370   0.105  -1.606
    1LIG   HC14   47  -1.558   0.135  -1.779
    1LIG   HC15   48  -1.796   0.200  -1.786
    1LIG   HC16   49  -1.883   0.369  -1.628
    1LIG   HC17   50  -1.730   0.481  -1.470
    1LIG   HC18   51  -1.492   0.414  -1.460
    1LIG   HC19   52  -1.316   0.068  -1.438
    1LIG    H25   53  -1.086   0.471  -1.566
    1LIG    LP1   54  -1.520   1.074  -1.800
   0.00000   0.00000   0.00000
