; Created by cgenff_charmm2gmx.py

[ moleculetype ]
; Name			   nrexcl
LIG				 3

[ atoms ]
;	 nr		  type	resnr residue  atom   cgnr	   charge		mass  typeB    chargeB		massB
; residue	 1 LIG rtp LIG q	qsum
     1      CG301      1    LIG     C1      1     -0.099     12.011   ;
     2      CG1N1      1    LIG     C2      2      0.459     12.011   ;
     3      NG1T1      1    LIG     N1      3     -0.452     14.007   ;
     4      CG331      1    LIG     C3      4     -0.295     12.011   ;
     5      CG331      1    LIG     C4      5     -0.295     12.011   ;
     6     CG2R61      1    LIG     C5      6      0.149     12.011   ;
     7     CG2R61      1    LIG     C6      7     -0.134     12.011   ;
     8     CG2R61      1    LIG     C7      8      0.085     12.011   ;
     9     CG2R61      1    LIG     C8      9     -0.129     12.011   ;
    10     CG2R61      1    LIG     C9     10     -0.110     12.011   ;
    11     CG2R61      1    LIG    C10     11     -0.121     12.011   ;
    12      CG301      1    LIG    C11     12      0.295     12.011   ;
    13      CG321      1    LIG    C12     13     -0.147     12.011   ;
    14      CG321      1    LIG    C13     14     -0.202     12.011   ;
    15      CG321      1    LIG    C14     15     -0.176     12.011   ;
    16      CG321      1    LIG    C15     16     -0.202     12.011   ;
    17      CG321      1    LIG    C16     17     -0.147     12.011   ;
    18      NG3P2      1    LIG     N2     18     -0.450     14.007   ;
    19       HGP2      1    LIG     H1     19      0.341      1.008   ;
    20       HGP2      1    LIG     H2     20      0.341      1.008   ;
    21      CG324      1    LIG    C17     21      0.208     12.011   ;
    22      CG311      1    LIG    C18     22      0.089     12.011   ;
    23      CG311      1    LIG    C19     23     -0.007     12.011   ;
    24      NG2S1      1    LIG     N3     24     -0.339     14.007   ;
    25      CG2O1      1    LIG    C20     25      0.488     12.011   ;
    26      OG2D1      1    LIG     O1     26     -0.509     15.999   ;
    27      CG331      1    LIG    C21     27     -0.270     12.011   ;
    28       HGP1      1    LIG     H3     28      0.261      1.008   ;
    29      CG321      1    LIG    C22     29     -0.153     12.011   ;
    30     CG2R61      1    LIG    C23     30      0.057     12.011   ;
    31     CG2R61      1    LIG    C24     31     -0.218     12.011   ;
    32     CG2R66      1    LIG    C25     32      0.261     12.011   ;
    33       FGR1      1    LIG     F1     33     -0.210     18.998   ;
    34     CG2R61      1    LIG    C26     34     -0.240     12.011   ;
    35     CG2R66      1    LIG    C27     35      0.261     12.011   ;
    36     CG2R61      1    LIG    C28     36     -0.218     12.011   ;
    37       FGR1      1    LIG     F2     37     -0.210     18.998   ;
    38      OG311      1    LIG     O2     38     -0.625     15.999   ;
    39       HGP1      1    LIG     H4     39      0.415      1.008   ;
    40      HGR61      1    LIG     HC     40      0.116      1.008   ;
    41      HGR61      1    LIG    HC1     41      0.116      1.008   ;
    42      HGR61      1    LIG    HC2     42      0.116      1.008   ;
    43      HGR61      1    LIG    HC3     43      0.116      1.008   ;
    44       HGA2      1    LIG    HC4     44      0.090      1.008   ;
    45       HGA2      1    LIG    HC5     45      0.090      1.008   ;
    46       HGA2      1    LIG    HC6     46      0.090      1.008   ;
    47       HGA2      1    LIG    HC7     47      0.090      1.008   ;
    48       HGA2      1    LIG    HC8     48      0.090      1.008   ;
    49       HGA2      1    LIG    HC9     49      0.090      1.008   ;
    50       HGA2      1    LIG   HC10     50      0.090      1.008   ;
    51       HGA2      1    LIG   HC11     51      0.090      1.008   ;
    52       HGA2      1    LIG   HC12     52      0.090      1.008   ;
    53       HGA2      1    LIG   HC13     53      0.090      1.008   ;
    54       HGA2      1    LIG   HC14     54      0.090      1.008   ;
    55       HGA2      1    LIG   HC15     55      0.090      1.008   ;
    56       HGA1      1    LIG   HC16     56      0.090      1.008   ;
    57       HGA1      1    LIG   HC17     57      0.090      1.008   ;
    58       HGA2      1    LIG   HC18     58      0.090      1.008   ;
    59       HGA2      1    LIG   HC19     59      0.090      1.008   ;
    60      HGR62      1    LIG   HC20     60      0.174      1.008   ;
    61      HGR62      1    LIG   HC21     61      0.186      1.008   ;
    62      HGR62      1    LIG   HC22     62      0.174      1.008   ;
    63       HGA3      1    LIG   HC23     63      0.090      1.008   ;
    64       HGA3      1    LIG   HC24     64      0.090      1.008   ;
    65       HGA3      1    LIG   HC25     65      0.090      1.008   ;
    66       HGA3      1    LIG   HC26     66      0.090      1.008   ;
    67       HGA3      1    LIG   HC27     67      0.090      1.008   ;
    68       HGA3      1    LIG   HC28     68      0.090      1.008   ;
    69       HGA3      1    LIG   HC29     69      0.090      1.008   ;
    70       HGA3      1    LIG   HC30     70      0.090      1.008   ;
    71       HGA3      1    LIG   HC31     71      0.090      1.008   ;

[ bonds ]
;	ai	  aj funct			  c0			c1			  c2			c3
    1     5	 1 ;       CG301      CG331
    1     4	 1 ;       CG301      CG331
    1     2	 1 ;       CG301      CG1N1
    1     6	 1 ;       CG301     CG2R61
    2     3	 1 ;       CG1N1      NG1T1
    4    63	 1 ;       CG331       HGA3
    4    64	 1 ;       CG331       HGA3
    4    65	 1 ;       CG331       HGA3
    5    66	 1 ;       CG331       HGA3
    5    67	 1 ;       CG331       HGA3
    5    68	 1 ;       CG331       HGA3
    6    11	 1 ;      CG2R61     CG2R61
    6     7	 1 ;      CG2R61     CG2R61
    7     8	 1 ;      CG2R61     CG2R61
    7    40	 1 ;      CG2R61      HGR61
    8     9	 1 ;      CG2R61     CG2R61
    8    12	 1 ;      CG2R61      CG301
    9    10	 1 ;      CG2R61     CG2R61
    9    41	 1 ;      CG2R61      HGR61
   10    11	 1 ;      CG2R61     CG2R61
   10    42	 1 ;      CG2R61      HGR61
   11    43	 1 ;      CG2R61      HGR61
   12    18	 1 ;       CG301      NG3P2
   12    17	 1 ;       CG301      CG321
   12    13	 1 ;       CG301      CG321
   13    14	 1 ;       CG321      CG321
   13    44	 1 ;       CG321       HGA2
   13    45	 1 ;       CG321       HGA2
   14    15	 1 ;       CG321      CG321
   14    46	 1 ;       CG321       HGA2
   14    47	 1 ;       CG321       HGA2
   15    16	 1 ;       CG321      CG321
   15    48	 1 ;       CG321       HGA2
   15    49	 1 ;       CG321       HGA2
   16    17	 1 ;       CG321      CG321
   16    50	 1 ;       CG321       HGA2
   16    51	 1 ;       CG321       HGA2
   17    52	 1 ;       CG321       HGA2
   17    53	 1 ;       CG321       HGA2
   18    19	 1 ;       NG3P2       HGP2
   18    21	 1 ;       NG3P2      CG324
   18    20	 1 ;       NG3P2       HGP2
   21    22	 1 ;       CG324      CG311
   21    54	 1 ;       CG324       HGA2
   21    55	 1 ;       CG324       HGA2
   22    23	 1 ;       CG311      CG311
   22    38	 1 ;       CG311      OG311
   22    56	 1 ;       CG311       HGA1
   23    24	 1 ;       CG311      NG2S1
   23    29	 1 ;       CG311      CG321
   23    57	 1 ;       CG311       HGA1
   24    25	 1 ;       NG2S1      CG2O1
   24    28	 1 ;       NG2S1       HGP1
   25    27	 1 ;       CG2O1      CG331
   25    26	 1 ;       CG2O1      OG2D1
   27    69	 1 ;       CG331       HGA3
   27    70	 1 ;       CG331       HGA3
   27    71	 1 ;       CG331       HGA3
   29    30	 1 ;       CG321     CG2R61
   29    58	 1 ;       CG321       HGA2
   29    59	 1 ;       CG321       HGA2
   30    36	 1 ;      CG2R61     CG2R61
   30    31	 1 ;      CG2R61     CG2R61
   31    32	 1 ;      CG2R61     CG2R66
   31    60	 1 ;      CG2R61      HGR62
   32    34	 1 ;      CG2R66     CG2R61
   32    33	 1 ;      CG2R66       FGR1
   34    35	 1 ;      CG2R61     CG2R66
   34    61	 1 ;      CG2R61      HGR62
   35    37	 1 ;      CG2R66       FGR1
   35    36	 1 ;      CG2R66     CG2R61
   36    62	 1 ;      CG2R61      HGR62
   38    39	 1 ;       OG311       HGP1

[ pairs ]
;	ai	  aj funct			  c0			c1			  c2			c3
    1    10	 1
    1    43	 1
    1     8	 1
    1    40	 1
    2    66	 1
    2    67	 1
    2    68	 1
    2    63	 1
    2    64	 1
    2    65	 1
    2    11	 1
    2     7	 1
    3     5	 1
    3     4	 1
    3     6	 1
    4    66	 1
    4    67	 1
    4    68	 1
    4    11	 1
    4     7	 1
    5    63	 1
    5    64	 1
    5    65	 1
    5    11	 1
    5     7	 1
    6    66	 1
    6    67	 1
    6    68	 1
    6    63	 1
    6    64	 1
    6    65	 1
    6     9	 1
    6    12	 1
    6    42	 1
    7    10	 1
    7    43	 1
    7    41	 1
    7    18	 1
    7    17	 1
    7    13	 1
    8    11	 1
    8    42	 1
    8    19	 1
    8    21	 1
    8    20	 1
    8    16	 1
    8    52	 1
    8    53	 1
    8    14	 1
    8    44	 1
    8    45	 1
    9    40	 1
    9    18	 1
    9    17	 1
    9    13	 1
    9    43	 1
   10    12	 1
   11    40	 1
   11    41	 1
   12    40	 1
   12    41	 1
   12    15	 1
   12    46	 1
   12    47	 1
   12    50	 1
   12    51	 1
   12    22	 1
   12    54	 1
   12    55	 1
   13    19	 1
   13    21	 1
   13    20	 1
   13    16	 1
   13    52	 1
   13    53	 1
   13    48	 1
   13    49	 1
   14    18	 1
   14    17	 1
   14    50	 1
   14    51	 1
   15    44	 1
   15    45	 1
   15    52	 1
   15    53	 1
   16    18	 1
   16    46	 1
   16    47	 1
   17    19	 1
   17    21	 1
   17    20	 1
   17    44	 1
   17    45	 1
   17    48	 1
   17    49	 1
   18    52	 1
   18    53	 1
   18    44	 1
   18    45	 1
   18    23	 1
   18    38	 1
   18    56	 1
   19    22	 1
   19    54	 1
   19    55	 1
   20    22	 1
   20    54	 1
   20    55	 1
   21    24	 1
   21    29	 1
   21    57	 1
   21    39	 1
   22    25	 1
   22    28	 1
   22    30	 1
   22    58	 1
   22    59	 1
   23    54	 1
   23    55	 1
   23    39	 1
   23    27	 1
   23    26	 1
   23    36	 1
   23    31	 1
   24    38	 1
   24    56	 1
   24    30	 1
   24    58	 1
   24    59	 1
   24    69	 1
   24    70	 1
   24    71	 1
   25    29	 1
   25    57	 1
   26    28	 1
   26    69	 1
   26    70	 1
   26    71	 1
   27    28	 1
   28    29	 1
   28    57	 1
   29    38	 1
   29    56	 1
   29    35	 1
   29    62	 1
   29    32	 1
   29    60	 1
   30    57	 1
   30    34	 1
   30    33	 1
   30    37	 1
   31    58	 1
   31    59	 1
   31    35	 1
   31    62	 1
   31    61	 1
   32    36	 1
   32    37	 1
   33    60	 1
   33    35	 1
   33    61	 1
   34    60	 1
   34    62	 1
   36    58	 1
   36    59	 1
   36    60	 1
   36    61	 1
   37    61	 1
   37    62	 1
   38    54	 1
   38    55	 1
   38    57	 1
   39    56	 1
   41    42	 1
   42    43	 1
   44    46	 1
   44    47	 1
   45    46	 1
   45    47	 1
   46    48	 1
   46    49	 1
   47    48	 1
   47    49	 1
   48    50	 1
   48    51	 1
   49    50	 1
   49    51	 1
   50    52	 1
   50    53	 1
   51    52	 1
   51    53	 1
   54    56	 1
   55    56	 1
   56    57	 1
   57    58	 1
   57    59	 1

[ angles ]
;	ai	  aj	ak funct			c0			  c1			c2			  c3
    5     1     4	5 ;      CG331      CG301      CG331
    5     1     2	5 ;      CG331      CG301      CG1N1
    5     1     6	5 ;      CG331      CG301     CG2R61
    4     1     2	5 ;      CG331      CG301      CG1N1
    4     1     6	5 ;      CG331      CG301     CG2R61
    2     1     6	5 ;      CG1N1      CG301     CG2R61
    1     2     3	5 ;      CG301      CG1N1      NG1T1
    1     4    63	5 ;      CG301      CG331       HGA3
    1     4    64	5 ;      CG301      CG331       HGA3
    1     4    65	5 ;      CG301      CG331       HGA3
   63     4    64	5 ;       HGA3      CG331       HGA3
   63     4    65	5 ;       HGA3      CG331       HGA3
   64     4    65	5 ;       HGA3      CG331       HGA3
    1     5    66	5 ;      CG301      CG331       HGA3
    1     5    67	5 ;      CG301      CG331       HGA3
    1     5    68	5 ;      CG301      CG331       HGA3
   66     5    67	5 ;       HGA3      CG331       HGA3
   66     5    68	5 ;       HGA3      CG331       HGA3
   67     5    68	5 ;       HGA3      CG331       HGA3
    1     6    11	5 ;      CG301     CG2R61     CG2R61
    1     6     7	5 ;      CG301     CG2R61     CG2R61
   11     6     7	5 ;     CG2R61     CG2R61     CG2R61
    6     7     8	5 ;     CG2R61     CG2R61     CG2R61
    6     7    40	5 ;     CG2R61     CG2R61      HGR61
    8     7    40	5 ;     CG2R61     CG2R61      HGR61
    7     8     9	5 ;     CG2R61     CG2R61     CG2R61
    7     8    12	5 ;     CG2R61     CG2R61      CG301
    9     8    12	5 ;     CG2R61     CG2R61      CG301
   10     9     8	5 ;     CG2R61     CG2R61     CG2R61
   10     9    41	5 ;     CG2R61     CG2R61      HGR61
    8     9    41	5 ;     CG2R61     CG2R61      HGR61
   11    10     9	5 ;     CG2R61     CG2R61     CG2R61
   11    10    42	5 ;     CG2R61     CG2R61      HGR61
    9    10    42	5 ;     CG2R61     CG2R61      HGR61
    6    11    10	5 ;     CG2R61     CG2R61     CG2R61
    6    11    43	5 ;     CG2R61     CG2R61      HGR61
   10    11    43	5 ;     CG2R61     CG2R61      HGR61
   18    12     8	5 ;      NG3P2      CG301     CG2R61
   18    12    17	5 ;      NG3P2      CG301      CG321
   18    12    13	5 ;      NG3P2      CG301      CG321
    8    12    17	5 ;     CG2R61      CG301      CG321
    8    12    13	5 ;     CG2R61      CG301      CG321
   17    12    13	5 ;      CG321      CG301      CG321
   12    13    14	5 ;      CG301      CG321      CG321
   12    13    44	5 ;      CG301      CG321       HGA2
   12    13    45	5 ;      CG301      CG321       HGA2
   14    13    44	5 ;      CG321      CG321       HGA2
   14    13    45	5 ;      CG321      CG321       HGA2
   44    13    45	5 ;       HGA2      CG321       HGA2
   13    14    15	5 ;      CG321      CG321      CG321
   13    14    46	5 ;      CG321      CG321       HGA2
   13    14    47	5 ;      CG321      CG321       HGA2
   15    14    46	5 ;      CG321      CG321       HGA2
   15    14    47	5 ;      CG321      CG321       HGA2
   46    14    47	5 ;       HGA2      CG321       HGA2
   16    15    14	5 ;      CG321      CG321      CG321
   16    15    48	5 ;      CG321      CG321       HGA2
   16    15    49	5 ;      CG321      CG321       HGA2
   14    15    48	5 ;      CG321      CG321       HGA2
   14    15    49	5 ;      CG321      CG321       HGA2
   48    15    49	5 ;       HGA2      CG321       HGA2
   17    16    15	5 ;      CG321      CG321      CG321
   17    16    50	5 ;      CG321      CG321       HGA2
   17    16    51	5 ;      CG321      CG321       HGA2
   15    16    50	5 ;      CG321      CG321       HGA2
   15    16    51	5 ;      CG321      CG321       HGA2
   50    16    51	5 ;       HGA2      CG321       HGA2
   12    17    16	5 ;      CG301      CG321      CG321
   12    17    52	5 ;      CG301      CG321       HGA2
   12    17    53	5 ;      CG301      CG321       HGA2
   16    17    52	5 ;      CG321      CG321       HGA2
   16    17    53	5 ;      CG321      CG321       HGA2
   52    17    53	5 ;       HGA2      CG321       HGA2
   19    18    21	5 ;       HGP2      NG3P2      CG324
   19    18    20	5 ;       HGP2      NG3P2       HGP2
   19    18    12	5 ;       HGP2      NG3P2      CG301
   21    18    20	5 ;      CG324      NG3P2       HGP2
   21    18    12	5 ;      CG324      NG3P2      CG301
   20    18    12	5 ;       HGP2      NG3P2      CG301
   22    21    18	5 ;      CG311      CG324      NG3P2
   22    21    54	5 ;      CG311      CG324       HGA2
   22    21    55	5 ;      CG311      CG324       HGA2
   18    21    54	5 ;      NG3P2      CG324       HGA2
   18    21    55	5 ;      NG3P2      CG324       HGA2
   54    21    55	5 ;       HGA2      CG324       HGA2
   23    22    38	5 ;      CG311      CG311      OG311
   23    22    21	5 ;      CG311      CG311      CG324
   23    22    56	5 ;      CG311      CG311       HGA1
   38    22    21	5 ;      OG311      CG311      CG324
   38    22    56	5 ;      OG311      CG311       HGA1
   21    22    56	5 ;      CG324      CG311       HGA1
   24    23    29	5 ;      NG2S1      CG311      CG321
   24    23    22	5 ;      NG2S1      CG311      CG311
   24    23    57	5 ;      NG2S1      CG311       HGA1
   29    23    22	5 ;      CG321      CG311      CG311
   29    23    57	5 ;      CG321      CG311       HGA1
   22    23    57	5 ;      CG311      CG311       HGA1
   25    24    28	5 ;      CG2O1      NG2S1       HGP1
   25    24    23	5 ;      CG2O1      NG2S1      CG311
   28    24    23	5 ;       HGP1      NG2S1      CG311
   27    25    26	5 ;      CG331      CG2O1      OG2D1
   27    25    24	5 ;      CG331      CG2O1      NG2S1
   26    25    24	5 ;      OG2D1      CG2O1      NG2S1
   25    27    69	5 ;      CG2O1      CG331       HGA3
   25    27    70	5 ;      CG2O1      CG331       HGA3
   25    27    71	5 ;      CG2O1      CG331       HGA3
   69    27    70	5 ;       HGA3      CG331       HGA3
   69    27    71	5 ;       HGA3      CG331       HGA3
   70    27    71	5 ;       HGA3      CG331       HGA3
   23    29    30	5 ;      CG311      CG321     CG2R61
   23    29    58	5 ;      CG311      CG321       HGA2
   23    29    59	5 ;      CG311      CG321       HGA2
   30    29    58	5 ;     CG2R61      CG321       HGA2
   30    29    59	5 ;     CG2R61      CG321       HGA2
   58    29    59	5 ;       HGA2      CG321       HGA2
   36    30    31	5 ;     CG2R61     CG2R61     CG2R61
   36    30    29	5 ;     CG2R61     CG2R61      CG321
   31    30    29	5 ;     CG2R61     CG2R61      CG321
   30    31    32	5 ;     CG2R61     CG2R61     CG2R66
   30    31    60	5 ;     CG2R61     CG2R61      HGR62
   32    31    60	5 ;     CG2R66     CG2R61      HGR62
   34    32    31	5 ;     CG2R61     CG2R66     CG2R61
   34    32    33	5 ;     CG2R61     CG2R66       FGR1
   31    32    33	5 ;     CG2R61     CG2R66       FGR1
   35    34    32	5 ;     CG2R66     CG2R61     CG2R66
   35    34    61	5 ;     CG2R66     CG2R61      HGR62
   32    34    61	5 ;     CG2R66     CG2R61      HGR62
   37    35    36	5 ;       FGR1     CG2R66     CG2R61
   37    35    34	5 ;       FGR1     CG2R66     CG2R61
   36    35    34	5 ;     CG2R61     CG2R66     CG2R61
   35    36    30	5 ;     CG2R66     CG2R61     CG2R61
   35    36    62	5 ;     CG2R66     CG2R61      HGR62
   30    36    62	5 ;     CG2R61     CG2R61      HGR62
   39    38    22	5 ;       HGP1      OG311      CG311

[ dihedrals ]
;	ai	  aj	ak	  al funct			  c0			c1			  c2			c3			  c4			c5
    4     1     5    66	 9 ;      CG331      CG301      CG331       HGA3
    4     1     5    67	 9 ;      CG331      CG301      CG331       HGA3
    4     1     5    68	 9 ;      CG331      CG301      CG331       HGA3
    2     1     5    66	 9 ;      CG1N1      CG301      CG331       HGA3
    2     1     5    67	 9 ;      CG1N1      CG301      CG331       HGA3
    2     1     5    68	 9 ;      CG1N1      CG301      CG331       HGA3
    6     1     5    66	 9 ;     CG2R61      CG301      CG331       HGA3
    6     1     5    67	 9 ;     CG2R61      CG301      CG331       HGA3
    6     1     5    68	 9 ;     CG2R61      CG301      CG331       HGA3
    5     1     4    63	 9 ;      CG331      CG301      CG331       HGA3
    5     1     4    64	 9 ;      CG331      CG301      CG331       HGA3
    5     1     4    65	 9 ;      CG331      CG301      CG331       HGA3
    2     1     4    63	 9 ;      CG1N1      CG301      CG331       HGA3
    2     1     4    64	 9 ;      CG1N1      CG301      CG331       HGA3
    2     1     4    65	 9 ;      CG1N1      CG301      CG331       HGA3
    6     1     4    63	 9 ;     CG2R61      CG301      CG331       HGA3
    6     1     4    64	 9 ;     CG2R61      CG301      CG331       HGA3
    6     1     4    65	 9 ;     CG2R61      CG301      CG331       HGA3
    5     1     6    11	 9 ;      CG331      CG301     CG2R61     CG2R61
    5     1     6     7	 9 ;      CG331      CG301     CG2R61     CG2R61
    4     1     6    11	 9 ;      CG331      CG301     CG2R61     CG2R61
    4     1     6     7	 9 ;      CG331      CG301     CG2R61     CG2R61
    2     1     6    11	 9 ;      CG1N1      CG301     CG2R61     CG2R61
    2     1     6     7	 9 ;      CG1N1      CG301     CG2R61     CG2R61
    1     6    11    10	 9 ;      CG301     CG2R61     CG2R61     CG2R61
    1     6    11    43	 9 ;      CG301     CG2R61     CG2R61      HGR61
    7     6    11    10	 9 ;     CG2R61     CG2R61     CG2R61     CG2R61
    7     6    11    43	 9 ;     CG2R61     CG2R61     CG2R61      HGR61
    1     6     7     8	 9 ;      CG301     CG2R61     CG2R61     CG2R61
    1     6     7    40	 9 ;      CG301     CG2R61     CG2R61      HGR61
   11     6     7     8	 9 ;     CG2R61     CG2R61     CG2R61     CG2R61
   11     6     7    40	 9 ;     CG2R61     CG2R61     CG2R61      HGR61
    6     7     8     9	 9 ;     CG2R61     CG2R61     CG2R61     CG2R61
    6     7     8    12	 9 ;     CG2R61     CG2R61     CG2R61      CG301
   40     7     8     9	 9 ;      HGR61     CG2R61     CG2R61     CG2R61
   40     7     8    12	 9 ;      HGR61     CG2R61     CG2R61      CG301
    7     8     9    10	 9 ;     CG2R61     CG2R61     CG2R61     CG2R61
    7     8     9    41	 9 ;     CG2R61     CG2R61     CG2R61      HGR61
   12     8     9    10	 9 ;      CG301     CG2R61     CG2R61     CG2R61
   12     8     9    41	 9 ;      CG301     CG2R61     CG2R61      HGR61
    7     8    12    18	 9 ;     CG2R61     CG2R61      CG301      NG3P2
    7     8    12    17	 9 ;     CG2R61     CG2R61      CG301      CG321
    7     8    12    13	 9 ;     CG2R61     CG2R61      CG301      CG321
    9     8    12    18	 9 ;     CG2R61     CG2R61      CG301      NG3P2
    9     8    12    17	 9 ;     CG2R61     CG2R61      CG301      CG321
    9     8    12    13	 9 ;     CG2R61     CG2R61      CG301      CG321
    8     9    10    11	 9 ;     CG2R61     CG2R61     CG2R61     CG2R61
    8     9    10    42	 9 ;     CG2R61     CG2R61     CG2R61      HGR61
   41     9    10    11	 9 ;      HGR61     CG2R61     CG2R61     CG2R61
   41     9    10    42	 9 ;      HGR61     CG2R61     CG2R61      HGR61
    9    10    11     6	 9 ;     CG2R61     CG2R61     CG2R61     CG2R61
    9    10    11    43	 9 ;     CG2R61     CG2R61     CG2R61      HGR61
   42    10    11     6	 9 ;      HGR61     CG2R61     CG2R61     CG2R61
   42    10    11    43	 9 ;      HGR61     CG2R61     CG2R61      HGR61
    8    12    18    19	 9 ;     CG2R61      CG301      NG3P2       HGP2
    8    12    18    21	 9 ;     CG2R61      CG301      NG3P2      CG324
    8    12    18    20	 9 ;     CG2R61      CG301      NG3P2       HGP2
   17    12    18    19	 9 ;      CG321      CG301      NG3P2       HGP2
   17    12    18    21	 9 ;      CG321      CG301      NG3P2      CG324
   17    12    18    20	 9 ;      CG321      CG301      NG3P2       HGP2
   13    12    18    19	 9 ;      CG321      CG301      NG3P2       HGP2
   13    12    18    21	 9 ;      CG321      CG301      NG3P2      CG324
   13    12    18    20	 9 ;      CG321      CG301      NG3P2       HGP2
   18    12    17    16	 9 ;      NG3P2      CG301      CG321      CG321
   18    12    17    52	 9 ;      NG3P2      CG301      CG321       HGA2
   18    12    17    53	 9 ;      NG3P2      CG301      CG321       HGA2
    8    12    17    16	 9 ;     CG2R61      CG301      CG321      CG321
    8    12    17    52	 9 ;     CG2R61      CG301      CG321       HGA2
    8    12    17    53	 9 ;     CG2R61      CG301      CG321       HGA2
   13    12    17    16	 9 ;      CG321      CG301      CG321      CG321
   13    12    17    52	 9 ;      CG321      CG301      CG321       HGA2
   13    12    17    53	 9 ;      CG321      CG301      CG321       HGA2
   18    12    13    14	 9 ;      NG3P2      CG301      CG321      CG321
   18    12    13    44	 9 ;      NG3P2      CG301      CG321       HGA2
   18    12    13    45	 9 ;      NG3P2      CG301      CG321       HGA2
    8    12    13    14	 9 ;     CG2R61      CG301      CG321      CG321
    8    12    13    44	 9 ;     CG2R61      CG301      CG321       HGA2
    8    12    13    45	 9 ;     CG2R61      CG301      CG321       HGA2
   17    12    13    14	 9 ;      CG321      CG301      CG321      CG321
   17    12    13    44	 9 ;      CG321      CG301      CG321       HGA2
   17    12    13    45	 9 ;      CG321      CG301      CG321       HGA2
   12    13    14    15	 9 ;      CG301      CG321      CG321      CG321
   12    13    14    46	 9 ;      CG301      CG321      CG321       HGA2
   12    13    14    47	 9 ;      CG301      CG321      CG321       HGA2
   44    13    14    15	 9 ;       HGA2      CG321      CG321      CG321
   44    13    14    46	 9 ;       HGA2      CG321      CG321       HGA2
   44    13    14    47	 9 ;       HGA2      CG321      CG321       HGA2
   45    13    14    15	 9 ;       HGA2      CG321      CG321      CG321
   45    13    14    46	 9 ;       HGA2      CG321      CG321       HGA2
   45    13    14    47	 9 ;       HGA2      CG321      CG321       HGA2
   13    14    15    16	 9 ;      CG321      CG321      CG321      CG321
   13    14    15    48	 9 ;      CG321      CG321      CG321       HGA2
   13    14    15    49	 9 ;      CG321      CG321      CG321       HGA2
   46    14    15    16	 9 ;       HGA2      CG321      CG321      CG321
   46    14    15    48	 9 ;       HGA2      CG321      CG321       HGA2
   46    14    15    49	 9 ;       HGA2      CG321      CG321       HGA2
   47    14    15    16	 9 ;       HGA2      CG321      CG321      CG321
   47    14    15    48	 9 ;       HGA2      CG321      CG321       HGA2
   47    14    15    49	 9 ;       HGA2      CG321      CG321       HGA2
   14    15    16    17	 9 ;      CG321      CG321      CG321      CG321
   14    15    16    50	 9 ;      CG321      CG321      CG321       HGA2
   14    15    16    51	 9 ;      CG321      CG321      CG321       HGA2
   48    15    16    17	 9 ;       HGA2      CG321      CG321      CG321
   48    15    16    50	 9 ;       HGA2      CG321      CG321       HGA2
   48    15    16    51	 9 ;       HGA2      CG321      CG321       HGA2
   49    15    16    17	 9 ;       HGA2      CG321      CG321      CG321
   49    15    16    50	 9 ;       HGA2      CG321      CG321       HGA2
   49    15    16    51	 9 ;       HGA2      CG321      CG321       HGA2
   15    16    17    12	 9 ;      CG321      CG321      CG321      CG301
   15    16    17    52	 9 ;      CG321      CG321      CG321       HGA2
   15    16    17    53	 9 ;      CG321      CG321      CG321       HGA2
   50    16    17    12	 9 ;       HGA2      CG321      CG321      CG301
   50    16    17    52	 9 ;       HGA2      CG321      CG321       HGA2
   50    16    17    53	 9 ;       HGA2      CG321      CG321       HGA2
   51    16    17    12	 9 ;       HGA2      CG321      CG321      CG301
   51    16    17    52	 9 ;       HGA2      CG321      CG321       HGA2
   51    16    17    53	 9 ;       HGA2      CG321      CG321       HGA2
   19    18    21    22	 9 ;       HGP2      NG3P2      CG324      CG311
   19    18    21    54	 9 ;       HGP2      NG3P2      CG324       HGA2
   19    18    21    55	 9 ;       HGP2      NG3P2      CG324       HGA2
   20    18    21    22	 9 ;       HGP2      NG3P2      CG324      CG311
   20    18    21    54	 9 ;       HGP2      NG3P2      CG324       HGA2
   20    18    21    55	 9 ;       HGP2      NG3P2      CG324       HGA2
   12    18    21    22	 9 ;      CG301      NG3P2      CG324      CG311
   12    18    21    54	 9 ;      CG301      NG3P2      CG324       HGA2
   12    18    21    55	 9 ;      CG301      NG3P2      CG324       HGA2
   18    21    22    23	 9 ;      NG3P2      CG324      CG311      CG311
   18    21    22    38	 9 ;      NG3P2      CG324      CG311      OG311
   18    21    22    56	 9 ;      NG3P2      CG324      CG311       HGA1
   54    21    22    23	 9 ;       HGA2      CG324      CG311      CG311
   54    21    22    38	 9 ;       HGA2      CG324      CG311      OG311
   54    21    22    56	 9 ;       HGA2      CG324      CG311       HGA1
   55    21    22    23	 9 ;       HGA2      CG324      CG311      CG311
   55    21    22    38	 9 ;       HGA2      CG324      CG311      OG311
   55    21    22    56	 9 ;       HGA2      CG324      CG311       HGA1
   38    22    23    24	 9 ;      OG311      CG311      CG311      NG2S1
   38    22    23    29	 9 ;      OG311      CG311      CG311      CG321
   38    22    23    57	 9 ;      OG311      CG311      CG311       HGA1
   21    22    23    24	 9 ;      CG324      CG311      CG311      NG2S1
   21    22    23    29	 9 ;      CG324      CG311      CG311      CG321
   21    22    23    57	 9 ;      CG324      CG311      CG311       HGA1
   56    22    23    24	 9 ;       HGA1      CG311      CG311      NG2S1
   56    22    23    29	 9 ;       HGA1      CG311      CG311      CG321
   56    22    23    57	 9 ;       HGA1      CG311      CG311       HGA1
   23    22    38    39	 9 ;      CG311      CG311      OG311       HGP1
   21    22    38    39	 9 ;      CG324      CG311      OG311       HGP1
   56    22    38    39	 9 ;       HGA1      CG311      OG311       HGP1
   29    23    24    25	 9 ;      CG321      CG311      NG2S1      CG2O1
   29    23    24    28	 9 ;      CG321      CG311      NG2S1       HGP1
   22    23    24    25	 9 ;      CG311      CG311      NG2S1      CG2O1
   22    23    24    28	 9 ;      CG311      CG311      NG2S1       HGP1
   57    23    24    25	 9 ;       HGA1      CG311      NG2S1      CG2O1
   57    23    24    28	 9 ;       HGA1      CG311      NG2S1       HGP1
   24    23    29    30	 9 ;      NG2S1      CG311      CG321     CG2R61
   24    23    29    58	 9 ;      NG2S1      CG311      CG321       HGA2
   24    23    29    59	 9 ;      NG2S1      CG311      CG321       HGA2
   22    23    29    30	 9 ;      CG311      CG311      CG321     CG2R61
   22    23    29    58	 9 ;      CG311      CG311      CG321       HGA2
   22    23    29    59	 9 ;      CG311      CG311      CG321       HGA2
   57    23    29    30	 9 ;       HGA1      CG311      CG321     CG2R61
   57    23    29    58	 9 ;       HGA1      CG311      CG321       HGA2
   57    23    29    59	 9 ;       HGA1      CG311      CG321       HGA2
   28    24    25    27	 9 ;       HGP1      NG2S1      CG2O1      CG331
   28    24    25    26	 9 ;       HGP1      NG2S1      CG2O1      OG2D1
   23    24    25    27	 9 ;      CG311      NG2S1      CG2O1      CG331
   23    24    25    26	 9 ;      CG311      NG2S1      CG2O1      OG2D1
   26    25    27    69	 9 ;      OG2D1      CG2O1      CG331       HGA3
   26    25    27    70	 9 ;      OG2D1      CG2O1      CG331       HGA3
   26    25    27    71	 9 ;      OG2D1      CG2O1      CG331       HGA3
   24    25    27    69	 9 ;      NG2S1      CG2O1      CG331       HGA3
   24    25    27    70	 9 ;      NG2S1      CG2O1      CG331       HGA3
   24    25    27    71	 9 ;      NG2S1      CG2O1      CG331       HGA3
   23    29    30    36	 9 ;      CG311      CG321     CG2R61     CG2R61
   23    29    30    31	 9 ;      CG311      CG321     CG2R61     CG2R61
   58    29    30    36	 9 ;       HGA2      CG321     CG2R61     CG2R61
   58    29    30    31	 9 ;       HGA2      CG321     CG2R61     CG2R61
   59    29    30    36	 9 ;       HGA2      CG321     CG2R61     CG2R61
   59    29    30    31	 9 ;       HGA2      CG321     CG2R61     CG2R61
   31    30    36    35	 9 ;     CG2R61     CG2R61     CG2R61     CG2R66
   31    30    36    62	 9 ;     CG2R61     CG2R61     CG2R61      HGR62
   29    30    36    35	 9 ;      CG321     CG2R61     CG2R61     CG2R66
   29    30    36    62	 9 ;      CG321     CG2R61     CG2R61      HGR62
   36    30    31    32	 9 ;     CG2R61     CG2R61     CG2R61     CG2R66
   36    30    31    60	 9 ;     CG2R61     CG2R61     CG2R61      HGR62
   29    30    31    32	 9 ;      CG321     CG2R61     CG2R61     CG2R66
   29    30    31    60	 9 ;      CG321     CG2R61     CG2R61      HGR62
   30    31    32    34	 9 ;     CG2R61     CG2R61     CG2R66     CG2R61
   30    31    32    33	 9 ;     CG2R61     CG2R61     CG2R66       FGR1
   60    31    32    34	 9 ;      HGR62     CG2R61     CG2R66     CG2R61
   60    31    32    33	 9 ;      HGR62     CG2R61     CG2R66       FGR1
   31    32    34    35	 9 ;     CG2R61     CG2R66     CG2R61     CG2R66
   31    32    34    61	 9 ;     CG2R61     CG2R66     CG2R61      HGR62
   33    32    34    35	 9 ;       FGR1     CG2R66     CG2R61     CG2R66
   33    32    34    61	 9 ;       FGR1     CG2R66     CG2R61      HGR62
   32    34    35    37	 9 ;     CG2R66     CG2R61     CG2R66       FGR1
   32    34    35    36	 9 ;     CG2R66     CG2R61     CG2R66     CG2R61
   61    34    35    37	 9 ;      HGR62     CG2R61     CG2R66       FGR1
   61    34    35    36	 9 ;      HGR62     CG2R61     CG2R66     CG2R61
   37    35    36    30	 9 ;       FGR1     CG2R66     CG2R61     CG2R61
   37    35    36    62	 9 ;       FGR1     CG2R66     CG2R61      HGR62
   34    35    36    30	 9 ;     CG2R61     CG2R66     CG2R61     CG2R61
   34    35    36    62	 9 ;     CG2R61     CG2R66     CG2R61      HGR62

[ dihedrals ]
;	ai	  aj	ak	  al funct			  c0			c1			  c2			c3
   25    27    24    26	 2

