Giant Rising Ordinary Mutants for A Clerical Setup
   71
    1LIG     C1    1  -1.599   0.881  -1.709
    1LIG     C2    2  -1.623   1.020  -1.665
    1LIG     N1    3  -1.643   1.128  -1.625
    1LIG     C3    4  -1.488   0.818  -1.622
    1LIG     C4    5  -1.543   0.886  -1.854
    1LIG     C5    6  -1.720   0.789  -1.683
    1LIG     C6    7  -1.709   0.681  -1.590
    1LIG     C7    8  -1.794   0.567  -1.594
    1LIG     C8    9  -1.889   0.569  -1.697
    1LIG     C9   10  -1.912   0.680  -1.779
    1LIG    C10   11  -1.829   0.792  -1.770
    1LIG    C11   12  -1.789   0.451  -1.485
    1LIG    C12   13  -1.809   0.508  -1.342
    1LIG    C13   14  -1.947   0.577  -1.325
    1LIG    C14   15  -2.063   0.485  -1.359
    1LIG    C15   16  -2.045   0.416  -1.494
    1LIG    C16   17  -1.906   0.350  -1.509
    1LIG     N2   18  -1.650   0.377  -1.493
    1LIG     H1   19  -1.627   0.367  -1.593
    1LIG     H2   20  -1.674   0.282  -1.463
    1LIG    C17   21  -1.513   0.406  -1.421
    1LIG    C18   22  -1.396   0.450  -1.515
    1LIG    C19   23  -1.247   0.401  -1.476
    1LIG     N3   24  -1.137   0.499  -1.497
    1LIG    C20   25  -1.079   0.510  -1.623
    1LIG     O1   26  -1.128   0.455  -1.723
    1LIG    C21   27  -0.951   0.592  -1.633
    1LIG     H3   28  -1.075   0.520  -1.419
    1LIG    C22   29  -1.241   0.348  -1.327
    1LIG    C23   30  -1.215   0.199  -1.328
    1LIG    C24   31  -1.315   0.113  -1.376
    1LIG    C25   32  -1.312  -0.021  -1.342
    1LIG     F1   33  -1.415  -0.099  -1.378
    1LIG    C26   34  -1.211  -0.074  -1.264
    1LIG    C27   35  -1.107   0.010  -1.224
    1LIG    C28   36  -1.106   0.145  -1.258
    1LIG     F2   37  -1.011  -0.038  -1.144
    1LIG     O2   38  -1.427   0.416  -1.650
    1LIG     H4   39  -1.345   0.386  -1.693
    1LIG     HC   40  -1.633   0.686  -1.513
    1LIG    HC1   41  -1.947   0.480  -1.714
    1LIG    HC2   42  -1.994   0.679  -1.849
    1LIG    HC3   43  -1.849   0.880  -1.829
    1LIG    HC4   44  -1.803   0.426  -1.271
    1LIG    HC5   45  -1.730   0.580  -1.321
    1LIG    HC6   46  -1.957   0.610  -1.222
    1LIG    HC7   47  -1.951   0.664  -1.391
    1LIG    HC8   48  -2.155   0.543  -1.362
    1LIG    HC9   49  -2.072   0.409  -1.282
    1LIG   HC10   50  -2.058   0.490  -1.573
    1LIG   HC11   51  -2.122   0.339  -1.505
    1LIG   HC12   52  -1.897   0.269  -1.436
    1LIG   HC13   53  -1.897   0.308  -1.609
    1LIG   HC14   54  -1.483   0.315  -1.370
    1LIG   HC15   55  -1.529   0.484  -1.347
    1LIG   HC16   56  -1.394   0.559  -1.511
    1LIG   HC17   57  -1.225   0.316  -1.540
    1LIG   HC18   58  -1.160   0.399  -1.275
    1LIG   HC19   59  -1.336   0.368  -1.278
    1LIG   HC20   60  -1.393   0.152  -1.440
    1LIG   HC21   61  -1.213  -0.177  -1.233
    1LIG   HC22   62  -1.022   0.208  -1.231
    1LIG   HC23   63  -1.395   0.874  -1.635
    1LIG   HC24   64  -1.472   0.715  -1.653
    1LIG   HC25   65  -1.518   0.820  -1.518
    1LIG   HC26   66  -1.617   0.931  -1.920
    1LIG   HC27   67  -1.520   0.785  -1.887
    1LIG   HC28   68  -1.452   0.947  -1.856
    1LIG   HC29   69  -0.916   0.592  -1.736
    1LIG   HC30   70  -0.875   0.548  -1.569
    1LIG   HC31   71  -0.971   0.694  -1.600
   0.00000   0.00000   0.00000
