Gnomes, ROck Monsters And Chili Sauce
   75
    1LIG     N1    1  -1.586   0.328  -1.573
    1LIG     H1    2  -1.567   0.274  -1.487
    1LIG     H2    3  -1.528   0.412  -1.564
    1LIG     C1    4  -1.527   0.247  -1.688
    1LIG     C2    5  -1.393   0.315  -1.721
    1LIG     O1    6  -1.427   0.437  -1.791
    1LIG     H3    7  -1.452   0.507  -1.728
    1LIG     C3    8  -1.291   0.339  -1.605
    1LIG     C4    9  -1.156   0.266  -1.626
    1LIG     C5   10  -1.142   0.140  -1.543
    1LIG     C6   11  -1.045   0.129  -1.442
    1LIG     C7   12  -1.034   0.011  -1.367
    1LIG     F1   13  -0.940   0.003  -1.272
    1LIG     C8   14  -1.117  -0.097  -1.391
    1LIG     C9   15  -1.213  -0.086  -1.490
    1LIG    C10   16  -1.226   0.030  -1.566
    1LIG     F2   17  -1.294  -0.190  -1.515
    1LIG     N2   18  -1.265   0.479  -1.566
    1LIG    C11   19  -1.215   0.524  -1.447
    1LIG     O2   20  -1.202   0.452  -1.348
    1LIG    C12   21  -1.178   0.670  -1.447
    1LIG     H4   22  -1.254   0.544  -1.644
    1LIG    C13   23  -1.733   0.371  -1.579
    1LIG    C14   24  -1.778   0.389  -1.431
    1LIG    C15   25  -1.929   0.412  -1.419
    1LIG    C16   26  -2.008   0.296  -1.480
    1LIG    C17   27  -1.965   0.263  -1.622
    1LIG    C18   28  -1.813   0.251  -1.637
    1LIG    C19   29  -1.749   0.503  -1.657
    1LIG     N3   30  -1.823   0.499  -1.770
    1LIG    C20   31  -1.839   0.614  -1.836
    1LIG    HN1   32  -1.864   0.412  -1.803
    1LIG     N4   33  -1.782   0.730  -1.804
    1LIG    C21   34  -1.703   0.734  -1.694
    1LIG    HN2   35  -1.797   0.814  -1.860
    1LIG    C22   36  -1.688   0.621  -1.615
    1LIG    C23   37  -1.632   0.866  -1.663
    1LIG    C24   38  -1.606   0.948  -1.791
    1LIG    C25   39  -1.717   0.951  -1.567
    1LIG    C26   40  -1.495   0.837  -1.597
    1LIG    HC2   41  -1.594   0.249  -1.774
    1LIG    HC3   42  -1.510   0.144  -1.656
    1LIG     HC   43  -1.342   0.251  -1.793
    1LIG    HC1   44  -1.336   0.292  -1.517
    1LIG    HC4   45  -1.076   0.334  -1.598
    1LIG    HC5   46  -1.146   0.241  -1.731
    1LIG    HC6   47  -0.980   0.212  -1.422
    1LIG    HC7   48  -1.107  -0.188  -1.333
    1LIG    HC8   49  -1.302   0.035  -1.643
    1LIG    HC9   50  -1.139   0.698  -1.349
    1LIG   HC10   51  -1.101   0.688  -1.522
    1LIG   HC11   52  -1.266   0.730  -1.470
    1LIG   HC12   53  -1.727   0.475  -1.389
    1LIG   HC13   54  -1.751   0.300  -1.375
    1LIG   HC14   55  -1.956   0.421  -1.314
    1LIG   HC15   56  -1.956   0.504  -1.471
    1LIG   HC16   57  -2.114   0.323  -1.481
    1LIG   HC17   58  -1.995   0.208  -1.417
    1LIG   HC18   59  -2.010   0.168  -1.651
    1LIG   HC19   60  -2.001   0.341  -1.689
    1LIG   HC20   61  -1.790   0.244  -1.744
    1LIG   HC21   62  -1.780   0.160  -1.588
    1LIG   HC22   63  -1.905   0.613  -1.922
    1LIG   HC23   64  -1.630   0.624  -1.524
    1LIG   HC24   65  -1.701   0.970  -1.839
    1LIG   HC25   66  -1.556   1.042  -1.764
    1LIG   HC26   67  -1.542   0.891  -1.858
    1LIG   HC27   68  -1.737   0.895  -1.476
    1LIG   HC28   69  -1.664   1.043  -1.543
    1LIG   HC29   70  -1.812   0.976  -1.616
    1LIG   HC30   71  -1.509   0.779  -1.506
    1LIG   HC31   72  -1.446   0.932  -1.573
    1LIG   HC32   73  -1.432   0.782  -1.667
    1LIG    H40   74  -1.838   0.527  -1.599
    1LIG    H41   75  -1.755   0.590  -1.900
   0.00000   0.00000   0.00000
