; Created by cgenff_charmm2gmx.py

[ moleculetype ]
; Name			   nrexcl
LIG				 3

[ atoms ]
;	 nr		  type	resnr residue  atom   cgnr	   charge		mass  typeB    chargeB		massB
; residue	 1 LIG rtp LIG q	qsum
     1      NG3P2      1    LIG     N1      1     -0.482     14.007   ;
     2       HGP2      1    LIG     H1      2      0.341      1.008   ;
     3       HGP2      1    LIG     H2      3      0.341      1.008   ;
     4      CG324      1    LIG     C1      4      0.208     12.011   ;
     5      CG311      1    LIG     C2      5      0.089     12.011   ;
     6      OG311      1    LIG     O1      6     -0.625     15.999   ;
     7       HGP1      1    LIG     H3      7      0.415      1.008   ;
     8      CG311      1    LIG     C3      8     -0.007     12.011   ;
     9      CG321      1    LIG     C4      9     -0.153     12.011   ;
    10     CG2R61      1    LIG     C5     10      0.057     12.011   ;
    11     CG2R61      1    LIG     C6     11     -0.218     12.011   ;
    12     CG2R66      1    LIG     C7     12      0.261     12.011   ;
    13       FGR1      1    LIG     F1     13     -0.210     18.998   ;
    14     CG2R61      1    LIG     C8     14     -0.240     12.011   ;
    15     CG2R66      1    LIG     C9     15      0.261     12.011   ;
    16     CG2R61      1    LIG    C10     16     -0.218     12.011   ;
    17       FGR1      1    LIG     F2     17     -0.210     18.998   ;
    18      NG2S1      1    LIG     N2     18     -0.339     14.007   ;
    19      CG2O1      1    LIG    C11     19      0.488     12.011   ;
    20      OG2D1      1    LIG     O2     20     -0.509     15.999   ;
    21      CG331      1    LIG    C12     21     -0.270     12.011   ;
    22       HGP1      1    LIG     H4     22      0.261      1.008   ;
    23      CG301      1    LIG    C13     23      0.353     12.011   ;
    24      CG321      1    LIG    C14     24     -0.166     12.011   ;
    25      CG321      1    LIG    C15     25     -0.176     12.011   ;
    26      CG321      1    LIG    C16     26     -0.176     12.011   ;
    27      CG321      1    LIG    C17     27     -0.176     12.011   ;
    28      CG321      1    LIG    C18     28     -0.166     12.011   ;
    29      CG311      1    LIG    C19     29      0.223     12.011   ;
    30      NG311      1    LIG     N3     30     -0.629     14.007   ;
    31      CG321      1    LIG    C20     31      0.105     12.011   ;
    32     HGPAM1      1    LIG    HN1     32      0.329      1.008   ;
    33      NG311      1    LIG     N4     33     -0.623     14.007   ;
    34     CG2D1O      1    LIG    C21     34      0.108     12.011   ;
    35     HGPAM1      1    LIG    HN2     35      0.330      1.008   ;
    36      CG2D1      1    LIG    C22     36     -0.265     12.011   ;
    37      CG301      1    LIG    C23     37      0.048     12.011   ;
    38      CG331      1    LIG    C24     38     -0.286     12.011   ;
    39      CG331      1    LIG    C25     39     -0.286     12.011   ;
    40      CG331      1    LIG    C26     40     -0.286     12.011   ;
    41       HGA2      1    LIG    HC2     41      0.090      1.008   ;
    42       HGA2      1    LIG    HC3     42      0.090      1.008   ;
    43       HGA1      1    LIG     HC     43      0.090      1.008   ;
    44       HGA1      1    LIG    HC1     44      0.090      1.008   ;
    45       HGA2      1    LIG    HC4     45      0.090      1.008   ;
    46       HGA2      1    LIG    HC5     46      0.090      1.008   ;
    47      HGR62      1    LIG    HC6     47      0.174      1.008   ;
    48      HGR62      1    LIG    HC7     48      0.186      1.008   ;
    49      HGR62      1    LIG    HC8     49      0.174      1.008   ;
    50       HGA3      1    LIG    HC9     50      0.090      1.008   ;
    51       HGA3      1    LIG   HC10     51      0.090      1.008   ;
    52       HGA3      1    LIG   HC11     52      0.090      1.008   ;
    53       HGA2      1    LIG   HC12     53      0.090      1.008   ;
    54       HGA2      1    LIG   HC13     54      0.090      1.008   ;
    55       HGA2      1    LIG   HC14     55      0.090      1.008   ;
    56       HGA2      1    LIG   HC15     56      0.090      1.008   ;
    57       HGA2      1    LIG   HC16     57      0.090      1.008   ;
    58       HGA2      1    LIG   HC17     58      0.090      1.008   ;
    59       HGA2      1    LIG   HC18     59      0.090      1.008   ;
    60       HGA2      1    LIG   HC19     60      0.090      1.008   ;
    61       HGA2      1    LIG   HC20     61      0.090      1.008   ;
    62       HGA2      1    LIG   HC21     62      0.090      1.008   ;
    63       HGA2      1    LIG   HC22     63      0.090      1.008   ;
    64       HGA4      1    LIG   HC23     64      0.174      1.008   ;
    65       HGA3      1    LIG   HC24     65      0.090      1.008   ;
    66       HGA3      1    LIG   HC25     66      0.090      1.008   ;
    67       HGA3      1    LIG   HC26     67      0.090      1.008   ;
    68       HGA3      1    LIG   HC27     68      0.090      1.008   ;
    69       HGA3      1    LIG   HC28     69      0.090      1.008   ;
    70       HGA3      1    LIG   HC29     70      0.090      1.008   ;
    71       HGA3      1    LIG   HC30     71      0.090      1.008   ;
    72       HGA3      1    LIG   HC31     72      0.090      1.008   ;
    73       HGA3      1    LIG   HC32     73      0.090      1.008   ;
    74       HGA1      1    LIG    H40     74      0.090      1.008   ;
    75       HGA2      1    LIG    H41     75      0.090      1.008   ;

[ bonds ]
;	ai	  aj funct			  c0			c1			  c2			c3
    1     4	 1 ;       NG3P2      CG324
    1     3	 1 ;       NG3P2       HGP2
    1     2	 1 ;       NG3P2       HGP2
    1    23	 1 ;       NG3P2      CG301
    4     5	 1 ;       CG324      CG311
    4    41	 1 ;       CG324       HGA2
    4    42	 1 ;       CG324       HGA2
    5     6	 1 ;       CG311      OG311
    5     8	 1 ;       CG311      CG311
    5    43	 1 ;       CG311       HGA1
    6     7	 1 ;       OG311       HGP1
    8     9	 1 ;       CG311      CG321
    8    18	 1 ;       CG311      NG2S1
    8    44	 1 ;       CG311       HGA1
    9    10	 1 ;       CG321     CG2R61
    9    45	 1 ;       CG321       HGA2
    9    46	 1 ;       CG321       HGA2
   10    11	 1 ;      CG2R61     CG2R61
   10    16	 1 ;      CG2R61     CG2R61
   11    12	 1 ;      CG2R61     CG2R66
   11    47	 1 ;      CG2R61      HGR62
   12    13	 1 ;      CG2R66       FGR1
   12    14	 1 ;      CG2R66     CG2R61
   14    15	 1 ;      CG2R61     CG2R66
   14    48	 1 ;      CG2R61      HGR62
   15    16	 1 ;      CG2R66     CG2R61
   15    17	 1 ;      CG2R66       FGR1
   16    49	 1 ;      CG2R61      HGR62
   18    22	 1 ;       NG2S1       HGP1
   18    19	 1 ;       NG2S1      CG2O1
   19    21	 1 ;       CG2O1      CG331
   19    20	 1 ;       CG2O1      OG2D1
   21    50	 1 ;       CG331       HGA3
   21    51	 1 ;       CG331       HGA3
   21    52	 1 ;       CG331       HGA3
   23    29	 1 ;       CG301      CG311
   23    28	 1 ;       CG301      CG321
   23    24	 1 ;       CG301      CG321
   24    25	 1 ;       CG321      CG321
   24    53	 1 ;       CG321       HGA2
   24    54	 1 ;       CG321       HGA2
   25    26	 1 ;       CG321      CG321
   25    55	 1 ;       CG321       HGA2
   25    56	 1 ;       CG321       HGA2
   26    27	 1 ;       CG321      CG321
   26    57	 1 ;       CG321       HGA2
   26    58	 1 ;       CG321       HGA2
   27    28	 1 ;       CG321      CG321
   27    59	 1 ;       CG321       HGA2
   27    60	 1 ;       CG321       HGA2
   28    61	 1 ;       CG321       HGA2
   28    62	 1 ;       CG321       HGA2
   29    36	 1 ;       CG311      CG2D1
   29    30	 1 ;       CG311      NG311
   29    74	 1 ;       CG311       HGA1
   30    31	 1 ;       NG311      CG321
   30    32	 1 ;       NG311     HGPAM1
   31    33	 1 ;       CG321      NG311
   31    63	 1 ;       CG321       HGA2
   31    75	 1 ;       CG321       HGA2
   33    35	 1 ;       NG311     HGPAM1
   33    34	 1 ;       NG311     CG2D1O
   34    37	 1 ;      CG2D1O      CG301
   34    36	 1 ;      CG2D1O      CG2D1
   36    64	 1 ;       CG2D1       HGA4
   37    38	 1 ;       CG301      CG331
   37    40	 1 ;       CG301      CG331
   37    39	 1 ;       CG301      CG331
   38    65	 1 ;       CG331       HGA3
   38    66	 1 ;       CG331       HGA3
   38    67	 1 ;       CG331       HGA3
   39    68	 1 ;       CG331       HGA3
   39    69	 1 ;       CG331       HGA3
   39    70	 1 ;       CG331       HGA3
   40    71	 1 ;       CG331       HGA3
   40    72	 1 ;       CG331       HGA3
   40    73	 1 ;       CG331       HGA3

[ pairs ]
;	ai	  aj funct			  c0			c1			  c2			c3
    1     6	 1
    1     8	 1
    1    43	 1
    1    36	 1
    1    30	 1
    1    74	 1
    1    27	 1
    1    61	 1
    1    62	 1
    1    25	 1
    1    53	 1
    1    54	 1
    2     5	 1
    2    41	 1
    2    42	 1
    2    29	 1
    2    28	 1
    2    24	 1
    3     5	 1
    3    41	 1
    3    42	 1
    3    29	 1
    3    28	 1
    3    24	 1
    4    29	 1
    4    28	 1
    4    24	 1
    4     7	 1
    4     9	 1
    4    18	 1
    4    44	 1
    5    23	 1
    5    10	 1
    5    45	 1
    5    46	 1
    5    22	 1
    5    19	 1
    6    41	 1
    6    42	 1
    6     9	 1
    6    18	 1
    6    44	 1
    7     8	 1
    7    43	 1
    8    41	 1
    8    42	 1
    8    11	 1
    8    16	 1
    8    21	 1
    8    20	 1
    9    43	 1
    9    22	 1
    9    19	 1
    9    12	 1
    9    47	 1
    9    15	 1
    9    49	 1
   10    18	 1
   10    44	 1
   10    13	 1
   10    14	 1
   10    17	 1
   11    45	 1
   11    46	 1
   11    15	 1
   11    49	 1
   11    48	 1
   12    16	 1
   12    17	 1
   13    47	 1
   13    15	 1
   13    48	 1
   14    47	 1
   14    49	 1
   16    45	 1
   16    46	 1
   16    47	 1
   16    48	 1
   17    48	 1
   17    49	 1
   18    43	 1
   18    45	 1
   18    46	 1
   18    50	 1
   18    51	 1
   18    52	 1
   19    44	 1
   20    22	 1
   20    50	 1
   20    51	 1
   20    52	 1
   21    22	 1
   22    44	 1
   23    41	 1
   23    42	 1
   23    26	 1
   23    55	 1
   23    56	 1
   23    59	 1
   23    60	 1
   23    34	 1
   23    64	 1
   23    31	 1
   23    32	 1
   24    36	 1
   24    30	 1
   24    74	 1
   24    27	 1
   24    61	 1
   24    62	 1
   24    57	 1
   24    58	 1
   25    29	 1
   25    28	 1
   25    59	 1
   25    60	 1
   26    53	 1
   26    54	 1
   26    61	 1
   26    62	 1
   27    29	 1
   27    55	 1
   27    56	 1
   28    36	 1
   28    30	 1
   28    74	 1
   28    53	 1
   28    54	 1
   28    57	 1
   28    58	 1
   29    61	 1
   29    62	 1
   29    53	 1
   29    54	 1
   29    33	 1
   29    63	 1
   29    75	 1
   29    37	 1
   30    34	 1
   30    64	 1
   30    35	 1
   31    36	 1
   31    74	 1
   31    37	 1
   32    36	 1
   32    74	 1
   32    33	 1
   32    63	 1
   32    75	 1
   33    38	 1
   33    40	 1
   33    39	 1
   33    64	 1
   34    74	 1
   34    63	 1
   34    75	 1
   34    65	 1
   34    66	 1
   34    67	 1
   34    71	 1
   34    72	 1
   34    73	 1
   34    68	 1
   34    69	 1
   34    70	 1
   35    63	 1
   35    75	 1
   35    37	 1
   35    36	 1
   36    38	 1
   36    40	 1
   36    39	 1
   37    64	 1
   38    71	 1
   38    72	 1
   38    73	 1
   38    68	 1
   38    69	 1
   38    70	 1
   39    65	 1
   39    66	 1
   39    67	 1
   39    71	 1
   39    72	 1
   39    73	 1
   40    65	 1
   40    66	 1
   40    67	 1
   40    68	 1
   40    69	 1
   40    70	 1
   41    43	 1
   42    43	 1
   43    44	 1
   44    45	 1
   44    46	 1
   53    55	 1
   53    56	 1
   54    55	 1
   54    56	 1
   55    57	 1
   55    58	 1
   56    57	 1
   56    58	 1
   57    59	 1
   57    60	 1
   58    59	 1
   58    60	 1
   59    61	 1
   59    62	 1
   60    61	 1
   60    62	 1
   64    74	 1

[ angles ]
;	ai	  aj	ak funct			c0			  c1			c2			  c3
    4     1     3	5 ;      CG324      NG3P2       HGP2
    4     1     2	5 ;      CG324      NG3P2       HGP2
    4     1    23	5 ;      CG324      NG3P2      CG301
    3     1     2	5 ;       HGP2      NG3P2       HGP2
    3     1    23	5 ;       HGP2      NG3P2      CG301
    2     1    23	5 ;       HGP2      NG3P2      CG301
    5     4     1	5 ;      CG311      CG324      NG3P2
    5     4    41	5 ;      CG311      CG324       HGA2
    5     4    42	5 ;      CG311      CG324       HGA2
    1     4    41	5 ;      NG3P2      CG324       HGA2
    1     4    42	5 ;      NG3P2      CG324       HGA2
   41     4    42	5 ;       HGA2      CG324       HGA2
    6     5     8	5 ;      OG311      CG311      CG311
    6     5     4	5 ;      OG311      CG311      CG324
    6     5    43	5 ;      OG311      CG311       HGA1
    8     5     4	5 ;      CG311      CG311      CG324
    8     5    43	5 ;      CG311      CG311       HGA1
    4     5    43	5 ;      CG324      CG311       HGA1
    5     6     7	5 ;      CG311      OG311       HGP1
    9     8    18	5 ;      CG321      CG311      NG2S1
    9     8     5	5 ;      CG321      CG311      CG311
    9     8    44	5 ;      CG321      CG311       HGA1
   18     8     5	5 ;      NG2S1      CG311      CG311
   18     8    44	5 ;      NG2S1      CG311       HGA1
    5     8    44	5 ;      CG311      CG311       HGA1
   10     9     8	5 ;     CG2R61      CG321      CG311
   10     9    45	5 ;     CG2R61      CG321       HGA2
   10     9    46	5 ;     CG2R61      CG321       HGA2
    8     9    45	5 ;      CG311      CG321       HGA2
    8     9    46	5 ;      CG311      CG321       HGA2
   45     9    46	5 ;       HGA2      CG321       HGA2
    9    10    11	5 ;      CG321     CG2R61     CG2R61
    9    10    16	5 ;      CG321     CG2R61     CG2R61
   11    10    16	5 ;     CG2R61     CG2R61     CG2R61
   10    11    12	5 ;     CG2R61     CG2R61     CG2R66
   10    11    47	5 ;     CG2R61     CG2R61      HGR62
   12    11    47	5 ;     CG2R66     CG2R61      HGR62
   11    12    13	5 ;     CG2R61     CG2R66       FGR1
   11    12    14	5 ;     CG2R61     CG2R66     CG2R61
   13    12    14	5 ;       FGR1     CG2R66     CG2R61
   12    14    15	5 ;     CG2R66     CG2R61     CG2R66
   12    14    48	5 ;     CG2R66     CG2R61      HGR62
   15    14    48	5 ;     CG2R66     CG2R61      HGR62
   16    15    14	5 ;     CG2R61     CG2R66     CG2R61
   16    15    17	5 ;     CG2R61     CG2R66       FGR1
   14    15    17	5 ;     CG2R61     CG2R66       FGR1
   10    16    15	5 ;     CG2R61     CG2R61     CG2R66
   10    16    49	5 ;     CG2R61     CG2R61      HGR62
   15    16    49	5 ;     CG2R66     CG2R61      HGR62
   22    18    19	5 ;       HGP1      NG2S1      CG2O1
   22    18     8	5 ;       HGP1      NG2S1      CG311
   19    18     8	5 ;      CG2O1      NG2S1      CG311
   21    19    18	5 ;      CG331      CG2O1      NG2S1
   21    19    20	5 ;      CG331      CG2O1      OG2D1
   18    19    20	5 ;      NG2S1      CG2O1      OG2D1
   19    21    50	5 ;      CG2O1      CG331       HGA3
   19    21    51	5 ;      CG2O1      CG331       HGA3
   19    21    52	5 ;      CG2O1      CG331       HGA3
   50    21    51	5 ;       HGA3      CG331       HGA3
   50    21    52	5 ;       HGA3      CG331       HGA3
   51    21    52	5 ;       HGA3      CG331       HGA3
    1    23    29	5 ;      NG3P2      CG301      CG311
    1    23    28	5 ;      NG3P2      CG301      CG321
    1    23    24	5 ;      NG3P2      CG301      CG321
   29    23    28	5 ;      CG311      CG301      CG321
   29    23    24	5 ;      CG311      CG301      CG321
   28    23    24	5 ;      CG321      CG301      CG321
   23    24    25	5 ;      CG301      CG321      CG321
   23    24    53	5 ;      CG301      CG321       HGA2
   23    24    54	5 ;      CG301      CG321       HGA2
   25    24    53	5 ;      CG321      CG321       HGA2
   25    24    54	5 ;      CG321      CG321       HGA2
   53    24    54	5 ;       HGA2      CG321       HGA2
   24    25    26	5 ;      CG321      CG321      CG321
   24    25    55	5 ;      CG321      CG321       HGA2
   24    25    56	5 ;      CG321      CG321       HGA2
   26    25    55	5 ;      CG321      CG321       HGA2
   26    25    56	5 ;      CG321      CG321       HGA2
   55    25    56	5 ;       HGA2      CG321       HGA2
   27    26    25	5 ;      CG321      CG321      CG321
   27    26    57	5 ;      CG321      CG321       HGA2
   27    26    58	5 ;      CG321      CG321       HGA2
   25    26    57	5 ;      CG321      CG321       HGA2
   25    26    58	5 ;      CG321      CG321       HGA2
   57    26    58	5 ;       HGA2      CG321       HGA2
   28    27    26	5 ;      CG321      CG321      CG321
   28    27    59	5 ;      CG321      CG321       HGA2
   28    27    60	5 ;      CG321      CG321       HGA2
   26    27    59	5 ;      CG321      CG321       HGA2
   26    27    60	5 ;      CG321      CG321       HGA2
   59    27    60	5 ;       HGA2      CG321       HGA2
   23    28    27	5 ;      CG301      CG321      CG321
   23    28    61	5 ;      CG301      CG321       HGA2
   23    28    62	5 ;      CG301      CG321       HGA2
   27    28    61	5 ;      CG321      CG321       HGA2
   27    28    62	5 ;      CG321      CG321       HGA2
   61    28    62	5 ;       HGA2      CG321       HGA2
   36    29    30	5 ;      CG2D1      CG311      NG311
   36    29    23	5 ;      CG2D1      CG311      CG301
   36    29    74	5 ;      CG2D1      CG311       HGA1
   30    29    23	5 ;      NG311      CG311      CG301
   30    29    74	5 ;      NG311      CG311       HGA1
   23    29    74	5 ;      CG301      CG311       HGA1
   31    30    29	5 ;      CG321      NG311      CG311
   31    30    32	5 ;      CG321      NG311     HGPAM1
   29    30    32	5 ;      CG311      NG311     HGPAM1
   33    31    30	5 ;      NG311      CG321      NG311
   33    31    63	5 ;      NG311      CG321       HGA2
   33    31    75	5 ;      NG311      CG321       HGA2
   30    31    63	5 ;      NG311      CG321       HGA2
   30    31    75	5 ;      NG311      CG321       HGA2
   63    31    75	5 ;       HGA2      CG321       HGA2
   35    33    34	5 ;     HGPAM1      NG311     CG2D1O
   35    33    31	5 ;     HGPAM1      NG311      CG321
   34    33    31	5 ;     CG2D1O      NG311      CG321
   37    34    33	5 ;      CG301     CG2D1O      NG311
   37    34    36	5 ;      CG301     CG2D1O      CG2D1
   33    34    36	5 ;      NG311     CG2D1O      CG2D1
   34    36    29	5 ;     CG2D1O      CG2D1      CG311
   34    36    64	5 ;     CG2D1O      CG2D1       HGA4
   29    36    64	5 ;      CG311      CG2D1       HGA4
   38    37    40	5 ;      CG331      CG301      CG331
   38    37    34	5 ;      CG331      CG301     CG2D1O
   38    37    39	5 ;      CG331      CG301      CG331
   40    37    34	5 ;      CG331      CG301     CG2D1O
   40    37    39	5 ;      CG331      CG301      CG331
   34    37    39	5 ;     CG2D1O      CG301      CG331
   37    38    65	5 ;      CG301      CG331       HGA3
   37    38    66	5 ;      CG301      CG331       HGA3
   37    38    67	5 ;      CG301      CG331       HGA3
   65    38    66	5 ;       HGA3      CG331       HGA3
   65    38    67	5 ;       HGA3      CG331       HGA3
   66    38    67	5 ;       HGA3      CG331       HGA3
   37    39    68	5 ;      CG301      CG331       HGA3
   37    39    69	5 ;      CG301      CG331       HGA3
   37    39    70	5 ;      CG301      CG331       HGA3
   68    39    69	5 ;       HGA3      CG331       HGA3
   68    39    70	5 ;       HGA3      CG331       HGA3
   69    39    70	5 ;       HGA3      CG331       HGA3
   37    40    71	5 ;      CG301      CG331       HGA3
   37    40    72	5 ;      CG301      CG331       HGA3
   37    40    73	5 ;      CG301      CG331       HGA3
   71    40    72	5 ;       HGA3      CG331       HGA3
   71    40    73	5 ;       HGA3      CG331       HGA3
   72    40    73	5 ;       HGA3      CG331       HGA3

[ dihedrals ]
;	ai	  aj	ak	  al funct			  c0			c1			  c2			c3			  c4			c5
    3     1     4     5	 9 ;       HGP2      NG3P2      CG324      CG311
    3     1     4    41	 9 ;       HGP2      NG3P2      CG324       HGA2
    3     1     4    42	 9 ;       HGP2      NG3P2      CG324       HGA2
    2     1     4     5	 9 ;       HGP2      NG3P2      CG324      CG311
    2     1     4    41	 9 ;       HGP2      NG3P2      CG324       HGA2
    2     1     4    42	 9 ;       HGP2      NG3P2      CG324       HGA2
   23     1     4     5	 9 ;      CG301      NG3P2      CG324      CG311
   23     1     4    41	 9 ;      CG301      NG3P2      CG324       HGA2
   23     1     4    42	 9 ;      CG301      NG3P2      CG324       HGA2
    4     1    23    29	 9 ;      CG324      NG3P2      CG301      CG311
    4     1    23    28	 9 ;      CG324      NG3P2      CG301      CG321
    4     1    23    24	 9 ;      CG324      NG3P2      CG301      CG321
    3     1    23    29	 9 ;       HGP2      NG3P2      CG301      CG311
    3     1    23    28	 9 ;       HGP2      NG3P2      CG301      CG321
    3     1    23    24	 9 ;       HGP2      NG3P2      CG301      CG321
    2     1    23    29	 9 ;       HGP2      NG3P2      CG301      CG311
    2     1    23    28	 9 ;       HGP2      NG3P2      CG301      CG321
    2     1    23    24	 9 ;       HGP2      NG3P2      CG301      CG321
    1     4     5     6	 9 ;      NG3P2      CG324      CG311      OG311
    1     4     5     8	 9 ;      NG3P2      CG324      CG311      CG311
    1     4     5    43	 9 ;      NG3P2      CG324      CG311       HGA1
   41     4     5     6	 9 ;       HGA2      CG324      CG311      OG311
   41     4     5     8	 9 ;       HGA2      CG324      CG311      CG311
   41     4     5    43	 9 ;       HGA2      CG324      CG311       HGA1
   42     4     5     6	 9 ;       HGA2      CG324      CG311      OG311
   42     4     5     8	 9 ;       HGA2      CG324      CG311      CG311
   42     4     5    43	 9 ;       HGA2      CG324      CG311       HGA1
    8     5     6     7	 9 ;      CG311      CG311      OG311       HGP1
    4     5     6     7	 9 ;      CG324      CG311      OG311       HGP1
   43     5     6     7	 9 ;       HGA1      CG311      OG311       HGP1
    6     5     8     9	 9 ;      OG311      CG311      CG311      CG321
    6     5     8    18	 9 ;      OG311      CG311      CG311      NG2S1
    6     5     8    44	 9 ;      OG311      CG311      CG311       HGA1
    4     5     8     9	 9 ;      CG324      CG311      CG311      CG321
    4     5     8    18	 9 ;      CG324      CG311      CG311      NG2S1
    4     5     8    44	 9 ;      CG324      CG311      CG311       HGA1
   43     5     8     9	 9 ;       HGA1      CG311      CG311      CG321
   43     5     8    18	 9 ;       HGA1      CG311      CG311      NG2S1
   43     5     8    44	 9 ;       HGA1      CG311      CG311       HGA1
   18     8     9    10	 9 ;      NG2S1      CG311      CG321     CG2R61
   18     8     9    45	 9 ;      NG2S1      CG311      CG321       HGA2
   18     8     9    46	 9 ;      NG2S1      CG311      CG321       HGA2
    5     8     9    10	 9 ;      CG311      CG311      CG321     CG2R61
    5     8     9    45	 9 ;      CG311      CG311      CG321       HGA2
    5     8     9    46	 9 ;      CG311      CG311      CG321       HGA2
   44     8     9    10	 9 ;       HGA1      CG311      CG321     CG2R61
   44     8     9    45	 9 ;       HGA1      CG311      CG321       HGA2
   44     8     9    46	 9 ;       HGA1      CG311      CG321       HGA2
    9     8    18    22	 9 ;      CG321      CG311      NG2S1       HGP1
    9     8    18    19	 9 ;      CG321      CG311      NG2S1      CG2O1
    5     8    18    22	 9 ;      CG311      CG311      NG2S1       HGP1
    5     8    18    19	 9 ;      CG311      CG311      NG2S1      CG2O1
   44     8    18    22	 9 ;       HGA1      CG311      NG2S1       HGP1
   44     8    18    19	 9 ;       HGA1      CG311      NG2S1      CG2O1
    8     9    10    11	 9 ;      CG311      CG321     CG2R61     CG2R61
    8     9    10    16	 9 ;      CG311      CG321     CG2R61     CG2R61
   45     9    10    11	 9 ;       HGA2      CG321     CG2R61     CG2R61
   45     9    10    16	 9 ;       HGA2      CG321     CG2R61     CG2R61
   46     9    10    11	 9 ;       HGA2      CG321     CG2R61     CG2R61
   46     9    10    16	 9 ;       HGA2      CG321     CG2R61     CG2R61
    9    10    11    12	 9 ;      CG321     CG2R61     CG2R61     CG2R66
    9    10    11    47	 9 ;      CG321     CG2R61     CG2R61      HGR62
   16    10    11    12	 9 ;     CG2R61     CG2R61     CG2R61     CG2R66
   16    10    11    47	 9 ;     CG2R61     CG2R61     CG2R61      HGR62
    9    10    16    15	 9 ;      CG321     CG2R61     CG2R61     CG2R66
    9    10    16    49	 9 ;      CG321     CG2R61     CG2R61      HGR62
   11    10    16    15	 9 ;     CG2R61     CG2R61     CG2R61     CG2R66
   11    10    16    49	 9 ;     CG2R61     CG2R61     CG2R61      HGR62
   10    11    12    13	 9 ;     CG2R61     CG2R61     CG2R66       FGR1
   10    11    12    14	 9 ;     CG2R61     CG2R61     CG2R66     CG2R61
   47    11    12    13	 9 ;      HGR62     CG2R61     CG2R66       FGR1
   47    11    12    14	 9 ;      HGR62     CG2R61     CG2R66     CG2R61
   11    12    14    15	 9 ;     CG2R61     CG2R66     CG2R61     CG2R66
   11    12    14    48	 9 ;     CG2R61     CG2R66     CG2R61      HGR62
   13    12    14    15	 9 ;       FGR1     CG2R66     CG2R61     CG2R66
   13    12    14    48	 9 ;       FGR1     CG2R66     CG2R61      HGR62
   12    14    15    16	 9 ;     CG2R66     CG2R61     CG2R66     CG2R61
   12    14    15    17	 9 ;     CG2R66     CG2R61     CG2R66       FGR1
   48    14    15    16	 9 ;      HGR62     CG2R61     CG2R66     CG2R61
   48    14    15    17	 9 ;      HGR62     CG2R61     CG2R66       FGR1
   14    15    16    10	 9 ;     CG2R61     CG2R66     CG2R61     CG2R61
   14    15    16    49	 9 ;     CG2R61     CG2R66     CG2R61      HGR62
   17    15    16    10	 9 ;       FGR1     CG2R66     CG2R61     CG2R61
   17    15    16    49	 9 ;       FGR1     CG2R66     CG2R61      HGR62
   22    18    19    21	 9 ;       HGP1      NG2S1      CG2O1      CG331
   22    18    19    20	 9 ;       HGP1      NG2S1      CG2O1      OG2D1
    8    18    19    21	 9 ;      CG311      NG2S1      CG2O1      CG331
    8    18    19    20	 9 ;      CG311      NG2S1      CG2O1      OG2D1
   18    19    21    50	 9 ;      NG2S1      CG2O1      CG331       HGA3
   18    19    21    51	 9 ;      NG2S1      CG2O1      CG331       HGA3
   18    19    21    52	 9 ;      NG2S1      CG2O1      CG331       HGA3
   20    19    21    50	 9 ;      OG2D1      CG2O1      CG331       HGA3
   20    19    21    51	 9 ;      OG2D1      CG2O1      CG331       HGA3
   20    19    21    52	 9 ;      OG2D1      CG2O1      CG331       HGA3
    1    23    29    36	 9 ;      NG3P2      CG301      CG311      CG2D1
    1    23    29    30	 9 ;      NG3P2      CG301      CG311      NG311
    1    23    29    74	 9 ;      NG3P2      CG301      CG311       HGA1
   28    23    29    36	 9 ;      CG321      CG301      CG311      CG2D1
   28    23    29    30	 9 ;      CG321      CG301      CG311      NG311
   28    23    29    74	 9 ;      CG321      CG301      CG311       HGA1
   24    23    29    36	 9 ;      CG321      CG301      CG311      CG2D1
   24    23    29    30	 9 ;      CG321      CG301      CG311      NG311
   24    23    29    74	 9 ;      CG321      CG301      CG311       HGA1
    1    23    28    27	 9 ;      NG3P2      CG301      CG321      CG321
    1    23    28    61	 9 ;      NG3P2      CG301      CG321       HGA2
    1    23    28    62	 9 ;      NG3P2      CG301      CG321       HGA2
   29    23    28    27	 9 ;      CG311      CG301      CG321      CG321
   29    23    28    61	 9 ;      CG311      CG301      CG321       HGA2
   29    23    28    62	 9 ;      CG311      CG301      CG321       HGA2
   24    23    28    27	 9 ;      CG321      CG301      CG321      CG321
   24    23    28    61	 9 ;      CG321      CG301      CG321       HGA2
   24    23    28    62	 9 ;      CG321      CG301      CG321       HGA2
    1    23    24    25	 9 ;      NG3P2      CG301      CG321      CG321
    1    23    24    53	 9 ;      NG3P2      CG301      CG321       HGA2
    1    23    24    54	 9 ;      NG3P2      CG301      CG321       HGA2
   29    23    24    25	 9 ;      CG311      CG301      CG321      CG321
   29    23    24    53	 9 ;      CG311      CG301      CG321       HGA2
   29    23    24    54	 9 ;      CG311      CG301      CG321       HGA2
   28    23    24    25	 9 ;      CG321      CG301      CG321      CG321
   28    23    24    53	 9 ;      CG321      CG301      CG321       HGA2
   28    23    24    54	 9 ;      CG321      CG301      CG321       HGA2
   23    24    25    26	 9 ;      CG301      CG321      CG321      CG321
   23    24    25    55	 9 ;      CG301      CG321      CG321       HGA2
   23    24    25    56	 9 ;      CG301      CG321      CG321       HGA2
   53    24    25    26	 9 ;       HGA2      CG321      CG321      CG321
   53    24    25    55	 9 ;       HGA2      CG321      CG321       HGA2
   53    24    25    56	 9 ;       HGA2      CG321      CG321       HGA2
   54    24    25    26	 9 ;       HGA2      CG321      CG321      CG321
   54    24    25    55	 9 ;       HGA2      CG321      CG321       HGA2
   54    24    25    56	 9 ;       HGA2      CG321      CG321       HGA2
   24    25    26    27	 9 ;      CG321      CG321      CG321      CG321
   24    25    26    57	 9 ;      CG321      CG321      CG321       HGA2
   24    25    26    58	 9 ;      CG321      CG321      CG321       HGA2
   55    25    26    27	 9 ;       HGA2      CG321      CG321      CG321
   55    25    26    57	 9 ;       HGA2      CG321      CG321       HGA2
   55    25    26    58	 9 ;       HGA2      CG321      CG321       HGA2
   56    25    26    27	 9 ;       HGA2      CG321      CG321      CG321
   56    25    26    57	 9 ;       HGA2      CG321      CG321       HGA2
   56    25    26    58	 9 ;       HGA2      CG321      CG321       HGA2
   25    26    27    28	 9 ;      CG321      CG321      CG321      CG321
   25    26    27    59	 9 ;      CG321      CG321      CG321       HGA2
   25    26    27    60	 9 ;      CG321      CG321      CG321       HGA2
   57    26    27    28	 9 ;       HGA2      CG321      CG321      CG321
   57    26    27    59	 9 ;       HGA2      CG321      CG321       HGA2
   57    26    27    60	 9 ;       HGA2      CG321      CG321       HGA2
   58    26    27    28	 9 ;       HGA2      CG321      CG321      CG321
   58    26    27    59	 9 ;       HGA2      CG321      CG321       HGA2
   58    26    27    60	 9 ;       HGA2      CG321      CG321       HGA2
   26    27    28    23	 9 ;      CG321      CG321      CG321      CG301
   26    27    28    61	 9 ;      CG321      CG321      CG321       HGA2
   26    27    28    62	 9 ;      CG321      CG321      CG321       HGA2
   59    27    28    23	 9 ;       HGA2      CG321      CG321      CG301
   59    27    28    61	 9 ;       HGA2      CG321      CG321       HGA2
   59    27    28    62	 9 ;       HGA2      CG321      CG321       HGA2
   60    27    28    23	 9 ;       HGA2      CG321      CG321      CG301
   60    27    28    61	 9 ;       HGA2      CG321      CG321       HGA2
   60    27    28    62	 9 ;       HGA2      CG321      CG321       HGA2
   30    29    36    34	 9 ;      NG311      CG311      CG2D1     CG2D1O
   30    29    36    64	 9 ;      NG311      CG311      CG2D1       HGA4
   23    29    36    34	 9 ;      CG301      CG311      CG2D1     CG2D1O
   23    29    36    64	 9 ;      CG301      CG311      CG2D1       HGA4
   74    29    36    34	 9 ;       HGA1      CG311      CG2D1     CG2D1O
   74    29    36    64	 9 ;       HGA1      CG311      CG2D1       HGA4
   36    29    30    31	 9 ;      CG2D1      CG311      NG311      CG321
   36    29    30    32	 9 ;      CG2D1      CG311      NG311     HGPAM1
   23    29    30    31	 9 ;      CG301      CG311      NG311      CG321
   23    29    30    32	 9 ;      CG301      CG311      NG311     HGPAM1
   74    29    30    31	 9 ;       HGA1      CG311      NG311      CG321
   74    29    30    32	 9 ;       HGA1      CG311      NG311     HGPAM1
   29    30    31    33	 9 ;      CG311      NG311      CG321      NG311
   29    30    31    63	 9 ;      CG311      NG311      CG321       HGA2
   29    30    31    75	 9 ;      CG311      NG311      CG321       HGA2
   32    30    31    33	 9 ;     HGPAM1      NG311      CG321      NG311
   32    30    31    63	 9 ;     HGPAM1      NG311      CG321       HGA2
   32    30    31    75	 9 ;     HGPAM1      NG311      CG321       HGA2
   30    31    33    35	 9 ;      NG311      CG321      NG311     HGPAM1
   30    31    33    34	 9 ;      NG311      CG321      NG311     CG2D1O
   63    31    33    35	 9 ;       HGA2      CG321      NG311     HGPAM1
   63    31    33    34	 9 ;       HGA2      CG321      NG311     CG2D1O
   75    31    33    35	 9 ;       HGA2      CG321      NG311     HGPAM1
   75    31    33    34	 9 ;       HGA2      CG321      NG311     CG2D1O
   35    33    34    37	 9 ;     HGPAM1      NG311     CG2D1O      CG301
   35    33    34    36	 9 ;     HGPAM1      NG311     CG2D1O      CG2D1
   31    33    34    37	 9 ;      CG321      NG311     CG2D1O      CG301
   31    33    34    36	 9 ;      CG321      NG311     CG2D1O      CG2D1
   33    34    37    38	 9 ;      NG311     CG2D1O      CG301      CG331
   33    34    37    40	 9 ;      NG311     CG2D1O      CG301      CG331
   33    34    37    39	 9 ;      NG311     CG2D1O      CG301      CG331
   36    34    37    38	 9 ;      CG2D1     CG2D1O      CG301      CG331
   36    34    37    40	 9 ;      CG2D1     CG2D1O      CG301      CG331
   36    34    37    39	 9 ;      CG2D1     CG2D1O      CG301      CG331
   37    34    36    29	 9 ;      CG301     CG2D1O      CG2D1      CG311
   37    34    36    64	 9 ;      CG301     CG2D1O      CG2D1       HGA4
   33    34    36    29	 9 ;      NG311     CG2D1O      CG2D1      CG311
   33    34    36    64	 9 ;      NG311     CG2D1O      CG2D1       HGA4
   40    37    38    65	 9 ;      CG331      CG301      CG331       HGA3
   40    37    38    66	 9 ;      CG331      CG301      CG331       HGA3
   40    37    38    67	 9 ;      CG331      CG301      CG331       HGA3
   34    37    38    65	 9 ;     CG2D1O      CG301      CG331       HGA3
   34    37    38    66	 9 ;     CG2D1O      CG301      CG331       HGA3
   34    37    38    67	 9 ;     CG2D1O      CG301      CG331       HGA3
   39    37    38    65	 9 ;      CG331      CG301      CG331       HGA3
   39    37    38    66	 9 ;      CG331      CG301      CG331       HGA3
   39    37    38    67	 9 ;      CG331      CG301      CG331       HGA3
   38    37    40    71	 9 ;      CG331      CG301      CG331       HGA3
   38    37    40    72	 9 ;      CG331      CG301      CG331       HGA3
   38    37    40    73	 9 ;      CG331      CG301      CG331       HGA3
   34    37    40    71	 9 ;     CG2D1O      CG301      CG331       HGA3
   34    37    40    72	 9 ;     CG2D1O      CG301      CG331       HGA3
   34    37    40    73	 9 ;     CG2D1O      CG301      CG331       HGA3
   39    37    40    71	 9 ;      CG331      CG301      CG331       HGA3
   39    37    40    72	 9 ;      CG331      CG301      CG331       HGA3
   39    37    40    73	 9 ;      CG331      CG301      CG331       HGA3
   38    37    39    68	 9 ;      CG331      CG301      CG331       HGA3
   38    37    39    69	 9 ;      CG331      CG301      CG331       HGA3
   38    37    39    70	 9 ;      CG331      CG301      CG331       HGA3
   40    37    39    68	 9 ;      CG331      CG301      CG331       HGA3
   40    37    39    69	 9 ;      CG331      CG301      CG331       HGA3
   40    37    39    70	 9 ;      CG331      CG301      CG331       HGA3
   34    37    39    68	 9 ;     CG2D1O      CG301      CG331       HGA3
   34    37    39    69	 9 ;     CG2D1O      CG301      CG331       HGA3
   34    37    39    70	 9 ;     CG2D1O      CG301      CG331       HGA3

[ dihedrals ]
;	ai	  aj	ak	  al funct			  c0			c1			  c2			c3
   19    21    18    20	 2
   34    36    37    33	 2

