Gromacs Runs On Most of All Computer Systems
   51
    1LIG     CL    1  -1.674   0.421  -1.495
    1LIG     C1    2  -1.518   0.366  -1.541
    1LIG     C2    3  -1.433   0.312  -1.445
    1LIG     C3    4  -1.307   0.264  -1.483
    1LIG     C4    5  -1.210   0.207  -1.383
    1LIG     C5    6  -1.133   0.089  -1.443
    1LIG     N1    7  -1.077   0.121  -1.575
    1LIG     HN    8  -0.991   0.076  -1.606
    1LIG     C6    9  -1.136   0.206  -1.654
    1LIG     C7   10  -1.268   0.268  -1.617
    1LIG     C8   11  -1.353   0.324  -1.713
    1LIG     C9   12  -1.478   0.373  -1.675
    1LIG    C10   13  -1.011   0.059  -1.354
    1LIG    C11   14  -1.220  -0.037  -1.450
    1LIG     N2   15  -1.075   0.244  -1.772
    1LIG      H   16  -1.044   0.172  -1.838
    1LIG     CA   17  -0.976   0.354  -1.782
    1LIG    C12   18  -0.876   0.321  -1.897
    1LIG      O   19  -0.755   0.304  -1.863
    1LIG    OXT   20  -0.930   0.309  -2.012
    1LIG    C13   21  -1.040   0.491  -1.805
    1LIG    C14   22  -0.982   0.608  -1.728
    1LIG    C15   23  -0.874   0.682  -1.772
    1LIG      S   24  -0.828   0.805  -1.664
    1LIG    C16   25  -0.952   0.763  -1.555
    1LIG    C17   26  -1.027   0.655  -1.599
    1LIG    C18   27  -1.139   0.594  -1.520
    1LIG    C19   28  -1.270   0.668  -1.541
    1LIG     HC   29  -1.463   0.309  -1.341
    1LIG    HC2   30  -1.265   0.173  -1.295
    1LIG    HC3   31  -1.140   0.285  -1.353
    1LIG    HC1   32  -1.322   0.330  -1.816
    1LIG    HC4   33  -1.544   0.417  -1.748
    1LIG    HC5   34  -0.948   0.148  -1.348
    1LIG    HC6   35  -0.954  -0.023  -1.397
    1LIG    HC7   36  -1.045   0.032  -1.254
    1LIG    HC8   37  -1.307  -0.018  -1.512
    1LIG    HC9   38  -1.253  -0.064  -1.349
    1LIG   HC10   39  -1.162  -0.119  -1.492
    1LIG   HC11   40  -0.921   0.358  -1.689
    1LIG   HC12   41  -1.146   0.483  -1.778
    1LIG   HC13   42  -1.035   0.514  -1.911
    1LIG   HC14   43  -0.823   0.664  -1.866
    1LIG   HC15   44  -0.970   0.814  -1.462
    1LIG   HC16   45  -1.152   0.490  -1.552
    1LIG   HC17   46  -1.114   0.595  -1.414
    1LIG   HC18   47  -1.349   0.620  -1.482
    1LIG   HC19   48  -1.297   0.665  -1.647
    1LIG   HC20   49  -1.259   0.772  -1.509
    1LIG    H24   50  -1.187   0.125  -1.705
    1LIG    LP1   51  -1.824   0.474  -1.452
   0.00000   0.00000   0.00000
