; Created by cgenff_charmm2gmx.py

[ moleculetype ]
; Name			   nrexcl
LIG				 3

[ atoms ]
;	 nr		  type	resnr residue  atom   cgnr	   charge		mass  typeB    chargeB		massB
; residue	 1 LIG rtp LIG q	qsum
     1      CLGR1      1    LIG     CL      1     -0.200     35.453   ;
     2     CG2R61      1    LIG     C1      2      0.048     12.011   ;
     3     CG2R61      1    LIG     C2      3     -0.121     12.011   ;
     4     CG2R61      1    LIG     C3      4      0.075     12.011   ;
     5      CG321      1    LIG     C4      5     -0.230     12.011   ;
     6      CG301      1    LIG     C5      6      0.375     12.011   ;
     7      NG311      1    LIG     N1      7     -0.864     14.007   ;
     8     HGPAM1      1    LIG     HN      8      0.350      1.008   ;
     9      CG311      1    LIG     C6      9      0.346     12.011   ;
    10     CG2R61      1    LIG     C7     10     -0.052     12.011   ;
    11     CG2R61      1    LIG     C8     11     -0.108     12.011   ;
    12     CG2R61      1    LIG     C9     12     -0.099     12.011   ;
    13      CG331      1    LIG    C10     13     -0.295     12.011   ;
    14      CG331      1    LIG    C11     14     -0.295     12.011   ;
    15      NG311      1    LIG     N2     15     -0.806     14.007   ;
    16     HGPAM1      1    LIG      H     16      0.362      1.008   ;
    17      CG311      1    LIG     CA     17     -0.001     12.011   ;
    18      CG2O3      1    LIG    C12     18      0.898     12.011   ;
    19      OG2D2      1    LIG      O     19     -0.832     15.999   ;
    20      OG2D2      1    LIG    OXT     20     -0.832     15.999   ;
    21      CG321      1    LIG    C13     21     -0.207     12.011   ;
    22     CG2R51      1    LIG    C14     22      0.002     12.011   ;
    23     CG2R51      1    LIG    C15     23     -0.173     12.011   ;
    24     SG2R50      1    LIG      S     24     -0.168     32.060   ;
    25     CG2R51      1    LIG    C16     25     -0.180     12.011   ;
    26     CG2R51      1    LIG    C17     26     -0.012     12.011   ;
    27      CG321      1    LIG    C18     27     -0.091     12.011   ;
    28      CG331      1    LIG    C19     28     -0.271     12.011   ;
    29      HGR62      1    LIG     HC     29      0.145      1.008   ;
    30       HGA2      1    LIG    HC2     30      0.090      1.008   ;
    31       HGA2      1    LIG    HC3     31      0.090      1.008   ;
    32      HGR61      1    LIG    HC1     32      0.116      1.008   ;
    33      HGR62      1    LIG    HC4     33      0.150      1.008   ;
    34       HGA3      1    LIG    HC5     34      0.090      1.008   ;
    35       HGA3      1    LIG    HC6     35      0.090      1.008   ;
    36       HGA3      1    LIG    HC7     36      0.090      1.008   ;
    37       HGA3      1    LIG    HC8     37      0.090      1.008   ;
    38       HGA3      1    LIG    HC9     38      0.090      1.008   ;
    39       HGA3      1    LIG   HC10     39      0.090      1.008   ;
    40       HGA1      1    LIG   HC11     40      0.090      1.008   ;
    41       HGA2      1    LIG   HC12     41      0.090      1.008   ;
    42       HGA2      1    LIG   HC13     42      0.090      1.008   ;
    43      HGR52      1    LIG   HC14     43      0.195      1.008   ;
    44      HGR52      1    LIG   HC15     44      0.195      1.008   ;
    45       HGA2      1    LIG   HC16     45      0.090      1.008   ;
    46       HGA2      1    LIG   HC17     46      0.090      1.008   ;
    47       HGA3      1    LIG   HC18     47      0.090      1.008   ;
    48       HGA3      1    LIG   HC19     48      0.090      1.008   ;
    49       HGA3      1    LIG   HC20     49      0.090      1.008   ;
    50       HGA1      1    LIG    H24     50      0.090      1.008   ;
    51        LPH      1    LIG    LP1     51      0.050      0.000   ;

[ bonds ]
;	ai	  aj funct			  c0			c1			  c2			c3
    1     2	 1 ;       CLGR1     CG2R61
    2    12	 1 ;      CG2R61     CG2R61
    2     3	 1 ;      CG2R61     CG2R61
    3     4	 1 ;      CG2R61     CG2R61
    3    29	 1 ;      CG2R61      HGR62
    4    10	 1 ;      CG2R61     CG2R61
    4     5	 1 ;      CG2R61      CG321
    5     6	 1 ;       CG321      CG301
    5    30	 1 ;       CG321       HGA2
    5    31	 1 ;       CG321       HGA2
    6     7	 1 ;       CG301      NG311
    6    13	 1 ;       CG301      CG331
    6    14	 1 ;       CG301      CG331
    7     8	 1 ;       NG311     HGPAM1
    7     9	 1 ;       NG311      CG311
    9    15	 1 ;       CG311      NG311
    9    10	 1 ;       CG311     CG2R61
    9    50	 1 ;       CG311       HGA1
   10    11	 1 ;      CG2R61     CG2R61
   11    12	 1 ;      CG2R61     CG2R61
   11    32	 1 ;      CG2R61      HGR61
   12    33	 1 ;      CG2R61      HGR62
   13    34	 1 ;       CG331       HGA3
   13    35	 1 ;       CG331       HGA3
   13    36	 1 ;       CG331       HGA3
   14    37	 1 ;       CG331       HGA3
   14    38	 1 ;       CG331       HGA3
   14    39	 1 ;       CG331       HGA3
   15    17	 1 ;       NG311      CG311
   15    16	 1 ;       NG311     HGPAM1
   17    18	 1 ;       CG311      CG2O3
   17    21	 1 ;       CG311      CG321
   17    40	 1 ;       CG311       HGA1
   18    19	 1 ;       CG2O3      OG2D2
   18    20	 1 ;       CG2O3      OG2D2
   21    22	 1 ;       CG321     CG2R51
   21    41	 1 ;       CG321       HGA2
   21    42	 1 ;       CG321       HGA2
   22    23	 1 ;      CG2R51     CG2R51
   22    26	 1 ;      CG2R51     CG2R51
   23    24	 1 ;      CG2R51     SG2R50
   23    43	 1 ;      CG2R51      HGR52
   24    25	 1 ;      SG2R50     CG2R51
   25    26	 1 ;      CG2R51     CG2R51
   25    44	 1 ;      CG2R51      HGR52
   26    27	 1 ;      CG2R51      CG321
   27    28	 1 ;       CG321      CG331
   27    45	 1 ;       CG321       HGA2
   27    46	 1 ;       CG321       HGA2
   28    47	 1 ;       CG331       HGA3
   28    48	 1 ;       CG331       HGA3
   28    49	 1 ;       CG331       HGA3

[ pairs ]
;	ai	  aj funct			  c0			c1			  c2			c3
    1    11	 1
   51    11	 1
    1    33	 1
   51    33	 1
    1     4	 1
   51     4	 1
    1    29	 1
   51    29	 1
    2    10	 1
    2     5	 1
    2    32	 1
    3    11	 1
    3    33	 1
    3     9	 1
    3     6	 1
    3    30	 1
    3    31	 1
    4    12	 1
    4     7	 1
    4    13	 1
    4    14	 1
    4    15	 1
    4    50	 1
    4    32	 1
    5    29	 1
    5     9	 1
    5    11	 1
    5     8	 1
    5    34	 1
    5    35	 1
    5    36	 1
    5    37	 1
    5    38	 1
    5    39	 1
    6    10	 1
    6    15	 1
    6    50	 1
    7    30	 1
    7    31	 1
    7    34	 1
    7    35	 1
    7    36	 1
    7    37	 1
    7    38	 1
    7    39	 1
    7    17	 1
    7    16	 1
    7    11	 1
    8    13	 1
    8    14	 1
    8    15	 1
    8    10	 1
    8    50	 1
    9    13	 1
    9    14	 1
    9    12	 1
    9    32	 1
    9    18	 1
    9    21	 1
    9    40	 1
   10    29	 1
   10    30	 1
   10    31	 1
   10    17	 1
   10    16	 1
   10    33	 1
   11    15	 1
   11    50	 1
   12    29	 1
   13    30	 1
   13    31	 1
   13    37	 1
   13    38	 1
   13    39	 1
   14    30	 1
   14    31	 1
   14    34	 1
   14    35	 1
   14    36	 1
   15    19	 1
   15    20	 1
   15    22	 1
   15    41	 1
   15    42	 1
   16    50	 1
   16    18	 1
   16    21	 1
   16    40	 1
   17    50	 1
   17    23	 1
   17    26	 1
   18    22	 1
   18    41	 1
   18    42	 1
   19    21	 1
   19    40	 1
   20    21	 1
   20    40	 1
   21    24	 1
   21    43	 1
   21    25	 1
   21    27	 1
   22    40	 1
   22    44	 1
   22    28	 1
   22    45	 1
   22    46	 1
   23    41	 1
   23    42	 1
   23    27	 1
   23    44	 1
   24    27	 1
   25    43	 1
   25    28	 1
   25    45	 1
   25    46	 1
   26    41	 1
   26    42	 1
   26    43	 1
   26    47	 1
   26    48	 1
   26    49	 1
   27    44	 1
   32    33	 1
   40    41	 1
   40    42	 1
   45    47	 1
   45    48	 1
   45    49	 1
   46    47	 1
   46    48	 1
   46    49	 1

[ angles ]
;	ai	  aj	ak funct			c0			  c1			c2			  c3
   12     2     3	5 ;     CG2R61     CG2R61     CG2R61
   12     2     1	5 ;     CG2R61     CG2R61      CLGR1
    3     2     1	5 ;     CG2R61     CG2R61      CLGR1
    4     3     2	5 ;     CG2R61     CG2R61     CG2R61
    4     3    29	5 ;     CG2R61     CG2R61      HGR62
    2     3    29	5 ;     CG2R61     CG2R61      HGR62
   10     4     5	5 ;     CG2R61     CG2R61      CG321
   10     4     3	5 ;     CG2R61     CG2R61     CG2R61
    5     4     3	5 ;      CG321     CG2R61     CG2R61
    6     5     4	5 ;      CG301      CG321     CG2R61
    6     5    30	5 ;      CG301      CG321       HGA2
    6     5    31	5 ;      CG301      CG321       HGA2
    4     5    30	5 ;     CG2R61      CG321       HGA2
    4     5    31	5 ;     CG2R61      CG321       HGA2
   30     5    31	5 ;       HGA2      CG321       HGA2
    7     6    13	5 ;      NG311      CG301      CG331
    7     6     5	5 ;      NG311      CG301      CG321
    7     6    14	5 ;      NG311      CG301      CG331
   13     6     5	5 ;      CG331      CG301      CG321
   13     6    14	5 ;      CG331      CG301      CG331
    5     6    14	5 ;      CG321      CG301      CG331
    8     7     9	5 ;     HGPAM1      NG311      CG311
    8     7     6	5 ;     HGPAM1      NG311      CG301
    9     7     6	5 ;      CG311      NG311      CG301
   15     9     7	5 ;      NG311      CG311      NG311
   15     9    10	5 ;      NG311      CG311     CG2R61
   15     9    50	5 ;      NG311      CG311       HGA1
    7     9    10	5 ;      NG311      CG311     CG2R61
    7     9    50	5 ;      NG311      CG311       HGA1
   10     9    50	5 ;     CG2R61      CG311       HGA1
    9    10    11	5 ;      CG311     CG2R61     CG2R61
    9    10     4	5 ;      CG311     CG2R61     CG2R61
   11    10     4	5 ;     CG2R61     CG2R61     CG2R61
   10    11    12	5 ;     CG2R61     CG2R61     CG2R61
   10    11    32	5 ;     CG2R61     CG2R61      HGR61
   12    11    32	5 ;     CG2R61     CG2R61      HGR61
   11    12     2	5 ;     CG2R61     CG2R61     CG2R61
   11    12    33	5 ;     CG2R61     CG2R61      HGR62
    2    12    33	5 ;     CG2R61     CG2R61      HGR62
    6    13    34	5 ;      CG301      CG331       HGA3
    6    13    35	5 ;      CG301      CG331       HGA3
    6    13    36	5 ;      CG301      CG331       HGA3
   34    13    35	5 ;       HGA3      CG331       HGA3
   34    13    36	5 ;       HGA3      CG331       HGA3
   35    13    36	5 ;       HGA3      CG331       HGA3
    6    14    37	5 ;      CG301      CG331       HGA3
    6    14    38	5 ;      CG301      CG331       HGA3
    6    14    39	5 ;      CG301      CG331       HGA3
   37    14    38	5 ;       HGA3      CG331       HGA3
   37    14    39	5 ;       HGA3      CG331       HGA3
   38    14    39	5 ;       HGA3      CG331       HGA3
   17    15    16	5 ;      CG311      NG311     HGPAM1
   17    15     9	5 ;      CG311      NG311      CG311
   16    15     9	5 ;     HGPAM1      NG311      CG311
   18    17    21	5 ;      CG2O3      CG311      CG321
   18    17    15	5 ;      CG2O3      CG311      NG311
   18    17    40	5 ;      CG2O3      CG311       HGA1
   21    17    15	5 ;      CG321      CG311      NG311
   21    17    40	5 ;      CG321      CG311       HGA1
   15    17    40	5 ;      NG311      CG311       HGA1
   19    18    20	5 ;      OG2D2      CG2O3      OG2D2
   19    18    17	5 ;      OG2D2      CG2O3      CG311
   20    18    17	5 ;      OG2D2      CG2O3      CG311
   22    21    17	5 ;     CG2R51      CG321      CG311
   22    21    41	5 ;     CG2R51      CG321       HGA2
   22    21    42	5 ;     CG2R51      CG321       HGA2
   17    21    41	5 ;      CG311      CG321       HGA2
   17    21    42	5 ;      CG311      CG321       HGA2
   41    21    42	5 ;       HGA2      CG321       HGA2
   23    22    21	5 ;     CG2R51     CG2R51      CG321
   23    22    26	5 ;     CG2R51     CG2R51     CG2R51
   21    22    26	5 ;      CG321     CG2R51     CG2R51
   24    23    22	5 ;     SG2R50     CG2R51     CG2R51
   24    23    43	5 ;     SG2R50     CG2R51      HGR52
   22    23    43	5 ;     CG2R51     CG2R51      HGR52
   23    24    25	5 ;     CG2R51     SG2R50     CG2R51
   24    25    26	5 ;     SG2R50     CG2R51     CG2R51
   24    25    44	5 ;     SG2R50     CG2R51      HGR52
   26    25    44	5 ;     CG2R51     CG2R51      HGR52
   22    26    25	5 ;     CG2R51     CG2R51     CG2R51
   22    26    27	5 ;     CG2R51     CG2R51      CG321
   25    26    27	5 ;     CG2R51     CG2R51      CG321
   26    27    28	5 ;     CG2R51      CG321      CG331
   26    27    45	5 ;     CG2R51      CG321       HGA2
   26    27    46	5 ;     CG2R51      CG321       HGA2
   28    27    45	5 ;      CG331      CG321       HGA2
   28    27    46	5 ;      CG331      CG321       HGA2
   45    27    46	5 ;       HGA2      CG321       HGA2
   27    28    47	5 ;      CG321      CG331       HGA3
   27    28    48	5 ;      CG321      CG331       HGA3
   27    28    49	5 ;      CG321      CG331       HGA3
   47    28    48	5 ;       HGA3      CG331       HGA3
   47    28    49	5 ;       HGA3      CG331       HGA3
   48    28    49	5 ;       HGA3      CG331       HGA3

[ dihedrals ]
;	ai	  aj	ak	  al funct			  c0			c1			  c2			c3			  c4			c5
    3     2    12    11	 9 ;     CG2R61     CG2R61     CG2R61     CG2R61
    3     2    12    33	 9 ;     CG2R61     CG2R61     CG2R61      HGR62
    1     2    12    11	 9 ;      CLGR1     CG2R61     CG2R61     CG2R61
    1     2    12    33	 9 ;      CLGR1     CG2R61     CG2R61      HGR62
   12     2     3     4	 9 ;     CG2R61     CG2R61     CG2R61     CG2R61
   12     2     3    29	 9 ;     CG2R61     CG2R61     CG2R61      HGR62
    1     2     3     4	 9 ;      CLGR1     CG2R61     CG2R61     CG2R61
    1     2     3    29	 9 ;      CLGR1     CG2R61     CG2R61      HGR62
    2     3     4    10	 9 ;     CG2R61     CG2R61     CG2R61     CG2R61
    2     3     4     5	 9 ;     CG2R61     CG2R61     CG2R61      CG321
   29     3     4    10	 9 ;      HGR62     CG2R61     CG2R61     CG2R61
   29     3     4     5	 9 ;      HGR62     CG2R61     CG2R61      CG321
    5     4    10     9	 9 ;      CG321     CG2R61     CG2R61      CG311
    5     4    10    11	 9 ;      CG321     CG2R61     CG2R61     CG2R61
    3     4    10     9	 9 ;     CG2R61     CG2R61     CG2R61      CG311
    3     4    10    11	 9 ;     CG2R61     CG2R61     CG2R61     CG2R61
   10     4     5     6	 9 ;     CG2R61     CG2R61      CG321      CG301
   10     4     5    30	 9 ;     CG2R61     CG2R61      CG321       HGA2
   10     4     5    31	 9 ;     CG2R61     CG2R61      CG321       HGA2
    3     4     5     6	 9 ;     CG2R61     CG2R61      CG321      CG301
    3     4     5    30	 9 ;     CG2R61     CG2R61      CG321       HGA2
    3     4     5    31	 9 ;     CG2R61     CG2R61      CG321       HGA2
    4     5     6     7	 9 ;     CG2R61      CG321      CG301      NG311
    4     5     6    13	 9 ;     CG2R61      CG321      CG301      CG331
    4     5     6    14	 9 ;     CG2R61      CG321      CG301      CG331
   30     5     6     7	 9 ;       HGA2      CG321      CG301      NG311
   30     5     6    13	 9 ;       HGA2      CG321      CG301      CG331
   30     5     6    14	 9 ;       HGA2      CG321      CG301      CG331
   31     5     6     7	 9 ;       HGA2      CG321      CG301      NG311
   31     5     6    13	 9 ;       HGA2      CG321      CG301      CG331
   31     5     6    14	 9 ;       HGA2      CG321      CG301      CG331
   13     6     7     8	 9 ;      CG331      CG301      NG311     HGPAM1
   13     6     7     9	 9 ;      CG331      CG301      NG311      CG311
    5     6     7     8	 9 ;      CG321      CG301      NG311     HGPAM1
    5     6     7     9	 9 ;      CG321      CG301      NG311      CG311
   14     6     7     8	 9 ;      CG331      CG301      NG311     HGPAM1
   14     6     7     9	 9 ;      CG331      CG301      NG311      CG311
    7     6    13    34	 9 ;      NG311      CG301      CG331       HGA3
    7     6    13    35	 9 ;      NG311      CG301      CG331       HGA3
    7     6    13    36	 9 ;      NG311      CG301      CG331       HGA3
    5     6    13    34	 9 ;      CG321      CG301      CG331       HGA3
    5     6    13    35	 9 ;      CG321      CG301      CG331       HGA3
    5     6    13    36	 9 ;      CG321      CG301      CG331       HGA3
   14     6    13    34	 9 ;      CG331      CG301      CG331       HGA3
   14     6    13    35	 9 ;      CG331      CG301      CG331       HGA3
   14     6    13    36	 9 ;      CG331      CG301      CG331       HGA3
    7     6    14    37	 9 ;      NG311      CG301      CG331       HGA3
    7     6    14    38	 9 ;      NG311      CG301      CG331       HGA3
    7     6    14    39	 9 ;      NG311      CG301      CG331       HGA3
   13     6    14    37	 9 ;      CG331      CG301      CG331       HGA3
   13     6    14    38	 9 ;      CG331      CG301      CG331       HGA3
   13     6    14    39	 9 ;      CG331      CG301      CG331       HGA3
    5     6    14    37	 9 ;      CG321      CG301      CG331       HGA3
    5     6    14    38	 9 ;      CG321      CG301      CG331       HGA3
    5     6    14    39	 9 ;      CG321      CG301      CG331       HGA3
    8     7     9    15	 9 ;     HGPAM1      NG311      CG311      NG311
    8     7     9    10	 9 ;     HGPAM1      NG311      CG311     CG2R61
    8     7     9    50	 9 ;     HGPAM1      NG311      CG311       HGA1
    6     7     9    15	 9 ;      CG301      NG311      CG311      NG311
    6     7     9    10	 9 ;      CG301      NG311      CG311     CG2R61
    6     7     9    50	 9 ;      CG301      NG311      CG311       HGA1
    7     9    15    17	 9 ;      NG311      CG311      NG311      CG311
    7     9    15    16	 9 ;      NG311      CG311      NG311     HGPAM1
   10     9    15    17	 9 ;     CG2R61      CG311      NG311      CG311
   10     9    15    16	 9 ;     CG2R61      CG311      NG311     HGPAM1
   50     9    15    17	 9 ;       HGA1      CG311      NG311      CG311
   50     9    15    16	 9 ;       HGA1      CG311      NG311     HGPAM1
   15     9    10    11	 9 ;      NG311      CG311     CG2R61     CG2R61
   15     9    10     4	 9 ;      NG311      CG311     CG2R61     CG2R61
    7     9    10    11	 9 ;      NG311      CG311     CG2R61     CG2R61
    7     9    10     4	 9 ;      NG311      CG311     CG2R61     CG2R61
   50     9    10    11	 9 ;       HGA1      CG311     CG2R61     CG2R61
   50     9    10     4	 9 ;       HGA1      CG311     CG2R61     CG2R61
    9    10    11    12	 9 ;      CG311     CG2R61     CG2R61     CG2R61
    9    10    11    32	 9 ;      CG311     CG2R61     CG2R61      HGR61
    4    10    11    12	 9 ;     CG2R61     CG2R61     CG2R61     CG2R61
    4    10    11    32	 9 ;     CG2R61     CG2R61     CG2R61      HGR61
   10    11    12     2	 9 ;     CG2R61     CG2R61     CG2R61     CG2R61
   10    11    12    33	 9 ;     CG2R61     CG2R61     CG2R61      HGR62
   32    11    12     2	 9 ;      HGR61     CG2R61     CG2R61     CG2R61
   32    11    12    33	 9 ;      HGR61     CG2R61     CG2R61      HGR62
   16    15    17    18	 9 ;     HGPAM1      NG311      CG311      CG2O3
   16    15    17    21	 9 ;     HGPAM1      NG311      CG311      CG321
   16    15    17    40	 9 ;     HGPAM1      NG311      CG311       HGA1
    9    15    17    18	 9 ;      CG311      NG311      CG311      CG2O3
    9    15    17    21	 9 ;      CG311      NG311      CG311      CG321
    9    15    17    40	 9 ;      CG311      NG311      CG311       HGA1
   21    17    18    19	 9 ;      CG321      CG311      CG2O3      OG2D2
   21    17    18    20	 9 ;      CG321      CG311      CG2O3      OG2D2
   15    17    18    19	 9 ;      NG311      CG311      CG2O3      OG2D2
   15    17    18    20	 9 ;      NG311      CG311      CG2O3      OG2D2
   40    17    18    19	 9 ;       HGA1      CG311      CG2O3      OG2D2
   40    17    18    20	 9 ;       HGA1      CG311      CG2O3      OG2D2
   18    17    21    22	 9 ;      CG2O3      CG311      CG321     CG2R51
   18    17    21    41	 9 ;      CG2O3      CG311      CG321       HGA2
   18    17    21    42	 9 ;      CG2O3      CG311      CG321       HGA2
   15    17    21    22	 9 ;      NG311      CG311      CG321     CG2R51
   15    17    21    41	 9 ;      NG311      CG311      CG321       HGA2
   15    17    21    42	 9 ;      NG311      CG311      CG321       HGA2
   40    17    21    22	 9 ;       HGA1      CG311      CG321     CG2R51
   40    17    21    41	 9 ;       HGA1      CG311      CG321       HGA2
   40    17    21    42	 9 ;       HGA1      CG311      CG321       HGA2
   17    21    22    23	 9 ;      CG311      CG321     CG2R51     CG2R51
   17    21    22    26	 9 ;      CG311      CG321     CG2R51     CG2R51
   41    21    22    23	 9 ;       HGA2      CG321     CG2R51     CG2R51
   41    21    22    26	 9 ;       HGA2      CG321     CG2R51     CG2R51
   42    21    22    23	 9 ;       HGA2      CG321     CG2R51     CG2R51
   42    21    22    26	 9 ;       HGA2      CG321     CG2R51     CG2R51
   21    22    23    24	 9 ;      CG321     CG2R51     CG2R51     SG2R50
   21    22    23    43	 9 ;      CG321     CG2R51     CG2R51      HGR52
   26    22    23    24	 9 ;     CG2R51     CG2R51     CG2R51     SG2R50
   26    22    23    43	 9 ;     CG2R51     CG2R51     CG2R51      HGR52
   23    22    26    25	 9 ;     CG2R51     CG2R51     CG2R51     CG2R51
   23    22    26    27	 9 ;     CG2R51     CG2R51     CG2R51      CG321
   21    22    26    25	 9 ;      CG321     CG2R51     CG2R51     CG2R51
   21    22    26    27	 9 ;      CG321     CG2R51     CG2R51      CG321
   22    23    24    25	 9 ;     CG2R51     CG2R51     SG2R50     CG2R51
   43    23    24    25	 9 ;      HGR52     CG2R51     SG2R50     CG2R51
   23    24    25    26	 9 ;     CG2R51     SG2R50     CG2R51     CG2R51
   23    24    25    44	 9 ;     CG2R51     SG2R50     CG2R51      HGR52
   24    25    26    22	 9 ;     SG2R50     CG2R51     CG2R51     CG2R51
   24    25    26    27	 9 ;     SG2R50     CG2R51     CG2R51      CG321
   44    25    26    22	 9 ;      HGR52     CG2R51     CG2R51     CG2R51
   44    25    26    27	 9 ;      HGR52     CG2R51     CG2R51      CG321
   22    26    27    28	 9 ;     CG2R51     CG2R51      CG321      CG331
   22    26    27    45	 9 ;     CG2R51     CG2R51      CG321       HGA2
   22    26    27    46	 9 ;     CG2R51     CG2R51      CG321       HGA2
   25    26    27    28	 9 ;     CG2R51     CG2R51      CG321      CG331
   25    26    27    45	 9 ;     CG2R51     CG2R51      CG321       HGA2
   25    26    27    46	 9 ;     CG2R51     CG2R51      CG321       HGA2
   26    27    28    47	 9 ;     CG2R51      CG321      CG331       HGA3
   26    27    28    48	 9 ;     CG2R51      CG321      CG331       HGA3
   26    27    28    49	 9 ;     CG2R51      CG321      CG331       HGA3
   45    27    28    47	 9 ;       HGA2      CG321      CG331       HGA3
   45    27    28    48	 9 ;       HGA2      CG321      CG331       HGA3
   45    27    28    49	 9 ;       HGA2      CG321      CG331       HGA3
   46    27    28    47	 9 ;       HGA2      CG321      CG331       HGA3
   46    27    28    48	 9 ;       HGA2      CG321      CG331       HGA3
   46    27    28    49	 9 ;       HGA2      CG321      CG331       HGA3

[ dihedrals ]
;	ai	  aj	ak	  al funct			  c0			c1			  c2			c3
   18    19    20    17	 2

[ virtual_sites2 ]
; Site   from				funct a
   51     1     2     2   -0.164

[ exclusions ]
;	ai	  aj
    1    51
   51     2
   51    12
   51     3
   51    11
   51    33
   51     4
   51    29

