; Created by cgenff_charmm2gmx.py

[ moleculetype ]
; Name			   nrexcl
LIG				 3

[ atoms ]
;	 nr		  type	resnr residue  atom   cgnr	   charge		mass  typeB    chargeB		massB
; residue	 1 LIG rtp LIG q	qsum
     1      CG311      1    LIG     C1      1      0.001     12.011   ;
     2      NG2S1      1    LIG     N1      2     -0.238     14.007   ;
     3      CG2O1      1    LIG     C2      3      0.302     12.011   ;
     4      OG2D1      1    LIG     O1      4     -0.463     15.999   ;
     5       HGP1      1    LIG     H1      5      0.262      1.008   ;
     6     CG2R61      1    LIG     C3      6     -0.101     12.011   ;
     7     CG2R61      1    LIG     C4      7     -0.004     12.011   ;
     8     CG2R61      1    LIG     C5      8     -0.101     12.011   ;
     9     CG2R61      1    LIG     C6      9     -0.064     12.011   ;
    10     CG2R61      1    LIG     C7     10      0.138     12.011   ;
    11     CG2R61      1    LIG     C8     11     -0.064     12.011   ;
    12      CG2O1      1    LIG     C9     12      0.320     12.011   ;
    13      OG2D1      1    LIG     O2     13     -0.463     15.999   ;
    14      NG2S1      1    LIG     N2     14     -0.366     14.007   ;
    15       HGP1      1    LIG     H2     15      0.314      1.008   ;
    16      CG311      1    LIG    C10     16      0.138     12.011   ;
    17      CG331      1    LIG    C11     17     -0.265     12.011   ;
    18     CG2R61      1    LIG    C12     18     -0.111     12.011   ;
    19     CG2R61      1    LIG    C13     19     -0.086     12.011   ;
    20     CG2R61      1    LIG    C14     20     -0.114     12.011   ;
    21     CG2R61      1    LIG    C15     21     -0.116     12.011   ;
    22     CG2R61      1    LIG    C16     22     -0.114     12.011   ;
    23     CG2R61      1    LIG    C17     23     -0.086     12.011   ;
    24      NG301      1    LIG     N3     24     -0.228     14.007   ;
    25      CG331      1    LIG    C18     25     -0.103     12.011   ;
    26      SG3O2      1    LIG      S     26      0.397     32.060   ;
    27      OG2P1      1    LIG     O3     27     -0.388     15.999   ;
    28      OG2P1      1    LIG     O4     28     -0.388     15.999   ;
    29      CG331      1    LIG    C19     29      0.036     12.011   ;
    30      CG311      1    LIG    C20     30      0.124     12.011   ;
    31      OG311      1    LIG     O5     31     -0.648     15.999   ;
    32       HGP1      1    LIG     H3     32      0.421      1.008   ;
    33      CG321      1    LIG    C21     33     -0.131     12.011   ;
    34      CG311      1    LIG    C22     34      0.097     12.011   ;
    35      CG321      1    LIG    C23     35     -0.019     12.011   ;
    36      OG301      1    LIG     O6     36     -0.389     15.999   ;
    37      CG321      1    LIG    C24     37      0.063     12.011   ;
    38     CG2R61      1    LIG    C25     38     -0.008     12.011   ;
    39     CG2R61      1    LIG    C26     39     -0.120     12.011   ;
    40     CG2R61      1    LIG    C27     40     -0.117     12.011   ;
    41     CG2R61      1    LIG    C28     41      0.211     12.011   ;
    42     CG2R61      1    LIG    C29     42     -0.117     12.011   ;
    43     CG2R61      1    LIG    C30     43     -0.120     12.011   ;
    44      OG301      1    LIG     O7     44     -0.383     15.999   ;
    45      CG331      1    LIG    C31     45     -0.094     12.011   ;
    46      OG301      1    LIG     O8     46     -0.392     15.999   ;
    47      CG331      1    LIG    C32     47     -0.091     12.011   ;
    48      CG321      1    LIG    C33     48      0.009     12.011   ;
    49      OG301      1    LIG     O9     49     -0.177     15.999   ;
    50     CG2R61      1    LIG    C34     50      0.384     12.011   ;
    51     CG2R61      1    LIG    C35     51     -0.410     12.011   ;
    52     CG2R66      1    LIG    C36     52      0.283     12.011   ;
    53       FGR1      1    LIG     F1     53     -0.210     18.998   ;
    54     CG2R61      1    LIG    C37     54     -0.240     12.011   ;
    55     CG2R66      1    LIG    C38     55      0.283     12.011   ;
    56       FGR1      1    LIG     F2     56     -0.210     18.998   ;
    57     CG2R61      1    LIG    C39     57     -0.410     12.011   ;
    58       HGA1      1    LIG     HC     58      0.090      1.008   ;
    59      HGR61      1    LIG    HC1     59      0.116      1.008   ;
    60      HGR61      1    LIG    HC2     60      0.116      1.008   ;
    61      HGR61      1    LIG    HC3     61      0.116      1.008   ;
    62       HGA1      1    LIG    HC4     62      0.090      1.008   ;
    63      HGR61      1    LIG    HC5     63      0.116      1.008   ;
    64      HGR61      1    LIG    HC6     64      0.116      1.008   ;
    65      HGR61      1    LIG    HC7     65      0.116      1.008   ;
    66      HGR61      1    LIG    HC8     66      0.116      1.008   ;
    67      HGR61      1    LIG    HC9     67      0.116      1.008   ;
    68       HGA1      1    LIG   HC10     68      0.090      1.008   ;
    69       HGA2      1    LIG   HC11     69      0.090      1.008   ;
    70       HGA2      1    LIG   HC12     70      0.090      1.008   ;
    71       HGA1      1    LIG   HC13     71      0.090      1.008   ;
    72       HGA2      1    LIG   HC14     72      0.090      1.008   ;
    73       HGA2      1    LIG   HC15     73      0.090      1.008   ;
    74       HGA2      1    LIG   HC16     74      0.090      1.008   ;
    75       HGA2      1    LIG   HC17     75      0.090      1.008   ;
    76      HGR61      1    LIG   HC18     76      0.116      1.008   ;
    77      HGR61      1    LIG   HC19     77      0.116      1.008   ;
    78      HGR61      1    LIG   HC20     78      0.116      1.008   ;
    79      HGR61      1    LIG   HC21     79      0.116      1.008   ;
    80       HGA2      1    LIG   HC22     80      0.090      1.008   ;
    81       HGA2      1    LIG   HC23     81      0.090      1.008   ;
    82      HGR62      1    LIG   HC24     82      0.179      1.008   ;
    83      HGR62      1    LIG   HC25     83      0.186      1.008   ;
    84      HGR62      1    LIG   HC26     84      0.179      1.008   ;
    85       HGA3      1    LIG   HC27     85      0.090      1.008   ;
    86       HGA3      1    LIG   HC28     86      0.090      1.008   ;
    87       HGA3      1    LIG   HC29     87      0.090      1.008   ;
    88       HGA3      1    LIG   HC30     88      0.090      1.008   ;
    89       HGA3      1    LIG   HC31     89      0.090      1.008   ;
    90       HGA3      1    LIG   HC32     90      0.090      1.008   ;
    91       HGA3      1    LIG   HC33     91      0.090      1.008   ;
    92       HGA3      1    LIG   HC34     92      0.090      1.008   ;
    93       HGA3      1    LIG   HC35     93      0.090      1.008   ;
    94       HGA3      1    LIG   HC36     94      0.090      1.008   ;
    95       HGA3      1    LIG   HC37     95      0.090      1.008   ;
    96       HGA3      1    LIG   HC38     96      0.090      1.008   ;
    97       HGA3      1    LIG   HC39     97      0.090      1.008   ;
    98       HGA3      1    LIG   HC40     98      0.090      1.008   ;
    99       HGA3      1    LIG   HC41     99      0.090      1.008   ;

[ bonds ]
;	ai	  aj funct			  c0			c1			  c2			c3
    1     2	 1 ;       CG311      NG2S1
    1    48	 1 ;       CG311      CG321
    1    30	 1 ;       CG311      CG311
    1    58	 1 ;       CG311       HGA1
    2     3	 1 ;       NG2S1      CG2O1
    2     5	 1 ;       NG2S1       HGP1
    3     6	 1 ;       CG2O1     CG2R61
    3     4	 1 ;       CG2O1      OG2D1
    6     7	 1 ;      CG2R61     CG2R61
    6    11	 1 ;      CG2R61     CG2R61
    7     8	 1 ;      CG2R61     CG2R61
    7    59	 1 ;      CG2R61      HGR61
    8    12	 1 ;      CG2R61      CG2O1
    8     9	 1 ;      CG2R61     CG2R61
    9    10	 1 ;      CG2R61     CG2R61
    9    60	 1 ;      CG2R61      HGR61
   10    24	 1 ;      CG2R61      NG301
   10    11	 1 ;      CG2R61     CG2R61
   11    61	 1 ;      CG2R61      HGR61
   12    13	 1 ;       CG2O1      OG2D1
   12    14	 1 ;       CG2O1      NG2S1
   14    16	 1 ;       NG2S1      CG311
   14    15	 1 ;       NG2S1       HGP1
   16    17	 1 ;       CG311      CG331
   16    18	 1 ;       CG311     CG2R61
   16    62	 1 ;       CG311       HGA1
   17    85	 1 ;       CG331       HGA3
   17    86	 1 ;       CG331       HGA3
   17    87	 1 ;       CG331       HGA3
   18    19	 1 ;      CG2R61     CG2R61
   18    23	 1 ;      CG2R61     CG2R61
   19    20	 1 ;      CG2R61     CG2R61
   19    63	 1 ;      CG2R61      HGR61
   20    21	 1 ;      CG2R61     CG2R61
   20    64	 1 ;      CG2R61      HGR61
   21    22	 1 ;      CG2R61     CG2R61
   21    65	 1 ;      CG2R61      HGR61
   22    23	 1 ;      CG2R61     CG2R61
   22    66	 1 ;      CG2R61      HGR61
   23    67	 1 ;      CG2R61      HGR61
   24    25	 1 ;       NG301      CG331
   24    26	 1 ;       NG301      SG3O2
   25    88	 1 ;       CG331       HGA3
   25    89	 1 ;       CG331       HGA3
   25    90	 1 ;       CG331       HGA3
   26    29	 1 ;       SG3O2      CG331
   26    28	 1 ;       SG3O2      OG2P1
   26    27	 1 ;       SG3O2      OG2P1
   29    91	 1 ;       CG331       HGA3
   29    92	 1 ;       CG331       HGA3
   29    93	 1 ;       CG331       HGA3
   30    31	 1 ;       CG311      OG311
   30    33	 1 ;       CG311      CG321
   30    68	 1 ;       CG311       HGA1
   31    32	 1 ;       OG311       HGP1
   33    34	 1 ;       CG321      CG311
   33    69	 1 ;       CG321       HGA2
   33    70	 1 ;       CG321       HGA2
   34    35	 1 ;       CG311      CG321
   34    46	 1 ;       CG311      OG301
   34    71	 1 ;       CG311       HGA1
   35    36	 1 ;       CG321      OG301
   35    72	 1 ;       CG321       HGA2
   35    73	 1 ;       CG321       HGA2
   36    37	 1 ;       OG301      CG321
   37    38	 1 ;       CG321     CG2R61
   37    74	 1 ;       CG321       HGA2
   37    75	 1 ;       CG321       HGA2
   38    43	 1 ;      CG2R61     CG2R61
   38    39	 1 ;      CG2R61     CG2R61
   39    40	 1 ;      CG2R61     CG2R61
   39    76	 1 ;      CG2R61      HGR61
   40    41	 1 ;      CG2R61     CG2R61
   40    77	 1 ;      CG2R61      HGR61
   41    44	 1 ;      CG2R61      OG301
   41    42	 1 ;      CG2R61     CG2R61
   42    43	 1 ;      CG2R61     CG2R61
   42    78	 1 ;      CG2R61      HGR61
   43    79	 1 ;      CG2R61      HGR61
   44    45	 1 ;       OG301      CG331
   45    94	 1 ;       CG331       HGA3
   45    95	 1 ;       CG331       HGA3
   45    96	 1 ;       CG331       HGA3
   46    47	 1 ;       OG301      CG331
   47    97	 1 ;       CG331       HGA3
   47    98	 1 ;       CG331       HGA3
   47    99	 1 ;       CG331       HGA3
   48    49	 1 ;       CG321      OG301
   48    80	 1 ;       CG321       HGA2
   48    81	 1 ;       CG321       HGA2
   49    50	 1 ;       OG301     CG2R61
   50    51	 1 ;      CG2R61     CG2R61
   50    57	 1 ;      CG2R61     CG2R61
   51    52	 1 ;      CG2R61     CG2R66
   51    82	 1 ;      CG2R61      HGR62
   52    53	 1 ;      CG2R66       FGR1
   52    54	 1 ;      CG2R66     CG2R61
   54    55	 1 ;      CG2R61     CG2R66
   54    83	 1 ;      CG2R61      HGR62
   55    57	 1 ;      CG2R66     CG2R61
   55    56	 1 ;      CG2R66       FGR1
   57    84	 1 ;      CG2R61      HGR62

[ pairs ]
;	ai	  aj funct			  c0			c1			  c2			c3
    1     6	 1
    1     4	 1
    1    32	 1
    1    34	 1
    1    69	 1
    1    70	 1
    1    50	 1
    2    49	 1
    2    80	 1
    2    81	 1
    2    31	 1
    2    33	 1
    2    68	 1
    2     7	 1
    2    11	 1
    3    48	 1
    3    30	 1
    3    58	 1
    3     8	 1
    3    59	 1
    3    10	 1
    3    61	 1
    4     5	 1
    4     7	 1
    4    11	 1
    5    48	 1
    5    30	 1
    5    58	 1
    5     6	 1
    6    12	 1
    6     9	 1
    6    24	 1
    7    10	 1
    7    61	 1
    7    13	 1
    7    14	 1
    7    60	 1
    8    11	 1
    8    24	 1
    8    16	 1
    8    15	 1
    9    59	 1
    9    13	 1
    9    14	 1
    9    25	 1
    9    26	 1
    9    61	 1
   10    12	 1
   10    88	 1
   10    89	 1
   10    90	 1
   10    29	 1
   10    28	 1
   10    27	 1
   11    59	 1
   11    60	 1
   11    25	 1
   11    26	 1
   12    59	 1
   12    60	 1
   12    17	 1
   12    18	 1
   12    62	 1
   13    16	 1
   13    15	 1
   14    85	 1
   14    86	 1
   14    87	 1
   14    19	 1
   14    23	 1
   15    17	 1
   15    18	 1
   15    62	 1
   16    20	 1
   16    63	 1
   16    22	 1
   16    67	 1
   17    19	 1
   17    23	 1
   18    85	 1
   18    86	 1
   18    87	 1
   18    21	 1
   18    64	 1
   18    66	 1
   19    62	 1
   19    22	 1
   19    67	 1
   19    65	 1
   20    23	 1
   20    66	 1
   21    63	 1
   21    67	 1
   22    64	 1
   23    62	 1
   23    63	 1
   23    65	 1
   24    60	 1
   24    61	 1
   24    91	 1
   24    92	 1
   24    93	 1
   25    29	 1
   25    28	 1
   25    27	 1
   26    88	 1
   26    89	 1
   26    90	 1
   27    91	 1
   27    92	 1
   27    93	 1
   28    91	 1
   28    92	 1
   28    93	 1
   30    49	 1
   30    80	 1
   30    81	 1
   30    35	 1
   30    46	 1
   30    71	 1
   31    48	 1
   31    58	 1
   31    34	 1
   31    69	 1
   31    70	 1
   32    33	 1
   32    68	 1
   33    48	 1
   33    58	 1
   33    36	 1
   33    72	 1
   33    73	 1
   33    47	 1
   34    68	 1
   34    37	 1
   34    97	 1
   34    98	 1
   34    99	 1
   35    69	 1
   35    70	 1
   35    47	 1
   35    38	 1
   35    74	 1
   35    75	 1
   36    46	 1
   36    71	 1
   36    43	 1
   36    39	 1
   37    72	 1
   37    73	 1
   37    42	 1
   37    79	 1
   37    40	 1
   37    76	 1
   38    41	 1
   38    77	 1
   38    78	 1
   39    74	 1
   39    75	 1
   39    42	 1
   39    79	 1
   39    44	 1
   40    43	 1
   40    45	 1
   40    78	 1
   41    76	 1
   41    79	 1
   41    94	 1
   41    95	 1
   41    96	 1
   42    77	 1
   42    45	 1
   43    74	 1
   43    75	 1
   43    76	 1
   43    44	 1
   44    77	 1
   44    78	 1
   46    69	 1
   46    70	 1
   46    72	 1
   46    73	 1
   47    71	 1
   48    68	 1
   48    51	 1
   48    57	 1
   49    58	 1
   49    52	 1
   49    82	 1
   49    55	 1
   49    84	 1
   50    80	 1
   50    81	 1
   50    53	 1
   50    54	 1
   50    56	 1
   51    55	 1
   51    84	 1
   51    83	 1
   52    57	 1
   52    56	 1
   53    82	 1
   53    55	 1
   53    83	 1
   54    82	 1
   54    84	 1
   56    83	 1
   56    84	 1
   57    82	 1
   57    83	 1
   58    80	 1
   58    81	 1
   58    68	 1
   62    85	 1
   62    86	 1
   62    87	 1
   63    64	 1
   64    65	 1
   65    66	 1
   66    67	 1
   68    69	 1
   68    70	 1
   69    71	 1
   70    71	 1
   71    72	 1
   71    73	 1
   76    77	 1
   78    79	 1

[ angles ]
;	ai	  aj	ak funct			c0			  c1			c2			  c3
    2     1    48	5 ;      NG2S1      CG311      CG321
    2     1    30	5 ;      NG2S1      CG311      CG311
    2     1    58	5 ;      NG2S1      CG311       HGA1
   48     1    30	5 ;      CG321      CG311      CG311
   48     1    58	5 ;      CG321      CG311       HGA1
   30     1    58	5 ;      CG311      CG311       HGA1
    3     2     5	5 ;      CG2O1      NG2S1       HGP1
    3     2     1	5 ;      CG2O1      NG2S1      CG311
    5     2     1	5 ;       HGP1      NG2S1      CG311
    6     3     4	5 ;     CG2R61      CG2O1      OG2D1
    6     3     2	5 ;     CG2R61      CG2O1      NG2S1
    4     3     2	5 ;      OG2D1      CG2O1      NG2S1
    7     6    11	5 ;     CG2R61     CG2R61     CG2R61
    7     6     3	5 ;     CG2R61     CG2R61      CG2O1
   11     6     3	5 ;     CG2R61     CG2R61      CG2O1
    8     7     6	5 ;     CG2R61     CG2R61     CG2R61
    8     7    59	5 ;     CG2R61     CG2R61      HGR61
    6     7    59	5 ;     CG2R61     CG2R61      HGR61
   12     8     9	5 ;      CG2O1     CG2R61     CG2R61
   12     8     7	5 ;      CG2O1     CG2R61     CG2R61
    9     8     7	5 ;     CG2R61     CG2R61     CG2R61
    8     9    10	5 ;     CG2R61     CG2R61     CG2R61
    8     9    60	5 ;     CG2R61     CG2R61      HGR61
   10     9    60	5 ;     CG2R61     CG2R61      HGR61
    9    10    24	5 ;     CG2R61     CG2R61      NG301
    9    10    11	5 ;     CG2R61     CG2R61     CG2R61
   24    10    11	5 ;      NG301     CG2R61     CG2R61
   10    11     6	5 ;     CG2R61     CG2R61     CG2R61
   10    11    61	5 ;     CG2R61     CG2R61      HGR61
    6    11    61	5 ;     CG2R61     CG2R61      HGR61
   13    12    14	5 ;      OG2D1      CG2O1      NG2S1
   13    12     8	5 ;      OG2D1      CG2O1     CG2R61
   14    12     8	5 ;      NG2S1      CG2O1     CG2R61
   16    14    12	5 ;      CG311      NG2S1      CG2O1
   16    14    15	5 ;      CG311      NG2S1       HGP1
   12    14    15	5 ;      CG2O1      NG2S1       HGP1
   17    16    18	5 ;      CG331      CG311     CG2R61
   17    16    14	5 ;      CG331      CG311      NG2S1
   17    16    62	5 ;      CG331      CG311       HGA1
   18    16    14	5 ;     CG2R61      CG311      NG2S1
   18    16    62	5 ;     CG2R61      CG311       HGA1
   14    16    62	5 ;      NG2S1      CG311       HGA1
   16    17    85	5 ;      CG311      CG331       HGA3
   16    17    86	5 ;      CG311      CG331       HGA3
   16    17    87	5 ;      CG311      CG331       HGA3
   85    17    86	5 ;       HGA3      CG331       HGA3
   85    17    87	5 ;       HGA3      CG331       HGA3
   86    17    87	5 ;       HGA3      CG331       HGA3
   19    18    16	5 ;     CG2R61     CG2R61      CG311
   19    18    23	5 ;     CG2R61     CG2R61     CG2R61
   16    18    23	5 ;      CG311     CG2R61     CG2R61
   20    19    18	5 ;     CG2R61     CG2R61     CG2R61
   20    19    63	5 ;     CG2R61     CG2R61      HGR61
   18    19    63	5 ;     CG2R61     CG2R61      HGR61
   19    20    21	5 ;     CG2R61     CG2R61     CG2R61
   19    20    64	5 ;     CG2R61     CG2R61      HGR61
   21    20    64	5 ;     CG2R61     CG2R61      HGR61
   20    21    22	5 ;     CG2R61     CG2R61     CG2R61
   20    21    65	5 ;     CG2R61     CG2R61      HGR61
   22    21    65	5 ;     CG2R61     CG2R61      HGR61
   21    22    23	5 ;     CG2R61     CG2R61     CG2R61
   21    22    66	5 ;     CG2R61     CG2R61      HGR61
   23    22    66	5 ;     CG2R61     CG2R61      HGR61
   18    23    22	5 ;     CG2R61     CG2R61     CG2R61
   18    23    67	5 ;     CG2R61     CG2R61      HGR61
   22    23    67	5 ;     CG2R61     CG2R61      HGR61
   25    24    10	5 ;      CG331      NG301     CG2R61
   25    24    26	5 ;      CG331      NG301      SG3O2
   10    24    26	5 ;     CG2R61      NG301      SG3O2
   24    25    88	5 ;      NG301      CG331       HGA3
   24    25    89	5 ;      NG301      CG331       HGA3
   24    25    90	5 ;      NG301      CG331       HGA3
   88    25    89	5 ;       HGA3      CG331       HGA3
   88    25    90	5 ;       HGA3      CG331       HGA3
   89    25    90	5 ;       HGA3      CG331       HGA3
   29    26    24	5 ;      CG331      SG3O2      NG301
   29    26    28	5 ;      CG331      SG3O2      OG2P1
   29    26    27	5 ;      CG331      SG3O2      OG2P1
   24    26    28	5 ;      NG301      SG3O2      OG2P1
   24    26    27	5 ;      NG301      SG3O2      OG2P1
   28    26    27	5 ;      OG2P1      SG3O2      OG2P1
   26    29    91	5 ;      SG3O2      CG331       HGA3
   26    29    92	5 ;      SG3O2      CG331       HGA3
   26    29    93	5 ;      SG3O2      CG331       HGA3
   91    29    92	5 ;       HGA3      CG331       HGA3
   91    29    93	5 ;       HGA3      CG331       HGA3
   92    29    93	5 ;       HGA3      CG331       HGA3
    1    30    31	5 ;      CG311      CG311      OG311
    1    30    33	5 ;      CG311      CG311      CG321
    1    30    68	5 ;      CG311      CG311       HGA1
   31    30    33	5 ;      OG311      CG311      CG321
   31    30    68	5 ;      OG311      CG311       HGA1
   33    30    68	5 ;      CG321      CG311       HGA1
   32    31    30	5 ;       HGP1      OG311      CG311
   34    33    30	5 ;      CG311      CG321      CG311
   34    33    69	5 ;      CG311      CG321       HGA2
   34    33    70	5 ;      CG311      CG321       HGA2
   30    33    69	5 ;      CG311      CG321       HGA2
   30    33    70	5 ;      CG311      CG321       HGA2
   69    33    70	5 ;       HGA2      CG321       HGA2
   35    34    46	5 ;      CG321      CG311      OG301
   35    34    33	5 ;      CG321      CG311      CG321
   35    34    71	5 ;      CG321      CG311       HGA1
   46    34    33	5 ;      OG301      CG311      CG321
   46    34    71	5 ;      OG301      CG311       HGA1
   33    34    71	5 ;      CG321      CG311       HGA1
   36    35    34	5 ;      OG301      CG321      CG311
   36    35    72	5 ;      OG301      CG321       HGA2
   36    35    73	5 ;      OG301      CG321       HGA2
   34    35    72	5 ;      CG311      CG321       HGA2
   34    35    73	5 ;      CG311      CG321       HGA2
   72    35    73	5 ;       HGA2      CG321       HGA2
   37    36    35	5 ;      CG321      OG301      CG321
   38    37    36	5 ;     CG2R61      CG321      OG301
   38    37    74	5 ;     CG2R61      CG321       HGA2
   38    37    75	5 ;     CG2R61      CG321       HGA2
   36    37    74	5 ;      OG301      CG321       HGA2
   36    37    75	5 ;      OG301      CG321       HGA2
   74    37    75	5 ;       HGA2      CG321       HGA2
   43    38    39	5 ;     CG2R61     CG2R61     CG2R61
   43    38    37	5 ;     CG2R61     CG2R61      CG321
   39    38    37	5 ;     CG2R61     CG2R61      CG321
   40    39    38	5 ;     CG2R61     CG2R61     CG2R61
   40    39    76	5 ;     CG2R61     CG2R61      HGR61
   38    39    76	5 ;     CG2R61     CG2R61      HGR61
   41    40    39	5 ;     CG2R61     CG2R61     CG2R61
   41    40    77	5 ;     CG2R61     CG2R61      HGR61
   39    40    77	5 ;     CG2R61     CG2R61      HGR61
   44    41    42	5 ;      OG301     CG2R61     CG2R61
   44    41    40	5 ;      OG301     CG2R61     CG2R61
   42    41    40	5 ;     CG2R61     CG2R61     CG2R61
   41    42    43	5 ;     CG2R61     CG2R61     CG2R61
   41    42    78	5 ;     CG2R61     CG2R61      HGR61
   43    42    78	5 ;     CG2R61     CG2R61      HGR61
   42    43    38	5 ;     CG2R61     CG2R61     CG2R61
   42    43    79	5 ;     CG2R61     CG2R61      HGR61
   38    43    79	5 ;     CG2R61     CG2R61      HGR61
   45    44    41	5 ;      CG331      OG301     CG2R61
   44    45    94	5 ;      OG301      CG331       HGA3
   44    45    95	5 ;      OG301      CG331       HGA3
   44    45    96	5 ;      OG301      CG331       HGA3
   94    45    95	5 ;       HGA3      CG331       HGA3
   94    45    96	5 ;       HGA3      CG331       HGA3
   95    45    96	5 ;       HGA3      CG331       HGA3
   47    46    34	5 ;      CG331      OG301      CG311
   46    47    97	5 ;      OG301      CG331       HGA3
   46    47    98	5 ;      OG301      CG331       HGA3
   46    47    99	5 ;      OG301      CG331       HGA3
   97    47    98	5 ;       HGA3      CG331       HGA3
   97    47    99	5 ;       HGA3      CG331       HGA3
   98    47    99	5 ;       HGA3      CG331       HGA3
    1    48    49	5 ;      CG311      CG321      OG301
    1    48    80	5 ;      CG311      CG321       HGA2
    1    48    81	5 ;      CG311      CG321       HGA2
   49    48    80	5 ;      OG301      CG321       HGA2
   49    48    81	5 ;      OG301      CG321       HGA2
   80    48    81	5 ;       HGA2      CG321       HGA2
   48    49    50	5 ;      CG321      OG301     CG2R61
   49    50    51	5 ;      OG301     CG2R61     CG2R61
   49    50    57	5 ;      OG301     CG2R61     CG2R61
   51    50    57	5 ;     CG2R61     CG2R61     CG2R61
   50    51    52	5 ;     CG2R61     CG2R61     CG2R66
   50    51    82	5 ;     CG2R61     CG2R61      HGR62
   52    51    82	5 ;     CG2R66     CG2R61      HGR62
   51    52    53	5 ;     CG2R61     CG2R66       FGR1
   51    52    54	5 ;     CG2R61     CG2R66     CG2R61
   53    52    54	5 ;       FGR1     CG2R66     CG2R61
   52    54    55	5 ;     CG2R66     CG2R61     CG2R66
   52    54    83	5 ;     CG2R66     CG2R61      HGR62
   55    54    83	5 ;     CG2R66     CG2R61      HGR62
   57    55    54	5 ;     CG2R61     CG2R66     CG2R61
   57    55    56	5 ;     CG2R61     CG2R66       FGR1
   54    55    56	5 ;     CG2R61     CG2R66       FGR1
   50    57    55	5 ;     CG2R61     CG2R61     CG2R66
   50    57    84	5 ;     CG2R61     CG2R61      HGR62
   55    57    84	5 ;     CG2R66     CG2R61      HGR62

[ dihedrals ]
;	ai	  aj	ak	  al funct			  c0			c1			  c2			c3			  c4			c5
   48     1     2     3	 9 ;      CG321      CG311      NG2S1      CG2O1
   48     1     2     5	 9 ;      CG321      CG311      NG2S1       HGP1
   30     1     2     3	 9 ;      CG311      CG311      NG2S1      CG2O1
   30     1     2     5	 9 ;      CG311      CG311      NG2S1       HGP1
   58     1     2     3	 9 ;       HGA1      CG311      NG2S1      CG2O1
   58     1     2     5	 9 ;       HGA1      CG311      NG2S1       HGP1
    2     1    48    49	 9 ;      NG2S1      CG311      CG321      OG301
    2     1    48    80	 9 ;      NG2S1      CG311      CG321       HGA2
    2     1    48    81	 9 ;      NG2S1      CG311      CG321       HGA2
   30     1    48    49	 9 ;      CG311      CG311      CG321      OG301
   30     1    48    80	 9 ;      CG311      CG311      CG321       HGA2
   30     1    48    81	 9 ;      CG311      CG311      CG321       HGA2
   58     1    48    49	 9 ;       HGA1      CG311      CG321      OG301
   58     1    48    80	 9 ;       HGA1      CG311      CG321       HGA2
   58     1    48    81	 9 ;       HGA1      CG311      CG321       HGA2
    2     1    30    31	 9 ;      NG2S1      CG311      CG311      OG311
    2     1    30    33	 9 ;      NG2S1      CG311      CG311      CG321
    2     1    30    68	 9 ;      NG2S1      CG311      CG311       HGA1
   48     1    30    31	 9 ;      CG321      CG311      CG311      OG311
   48     1    30    33	 9 ;      CG321      CG311      CG311      CG321
   48     1    30    68	 9 ;      CG321      CG311      CG311       HGA1
   58     1    30    31	 9 ;       HGA1      CG311      CG311      OG311
   58     1    30    33	 9 ;       HGA1      CG311      CG311      CG321
   58     1    30    68	 9 ;       HGA1      CG311      CG311       HGA1
    5     2     3     6	 9 ;       HGP1      NG2S1      CG2O1     CG2R61
    5     2     3     4	 9 ;       HGP1      NG2S1      CG2O1      OG2D1
    1     2     3     6	 9 ;      CG311      NG2S1      CG2O1     CG2R61
    1     2     3     4	 9 ;      CG311      NG2S1      CG2O1      OG2D1
    4     3     6     7	 9 ;      OG2D1      CG2O1     CG2R61     CG2R61
    4     3     6    11	 9 ;      OG2D1      CG2O1     CG2R61     CG2R61
    2     3     6     7	 9 ;      NG2S1      CG2O1     CG2R61     CG2R61
    2     3     6    11	 9 ;      NG2S1      CG2O1     CG2R61     CG2R61
   11     6     7     8	 9 ;     CG2R61     CG2R61     CG2R61     CG2R61
   11     6     7    59	 9 ;     CG2R61     CG2R61     CG2R61      HGR61
    3     6     7     8	 9 ;      CG2O1     CG2R61     CG2R61     CG2R61
    3     6     7    59	 9 ;      CG2O1     CG2R61     CG2R61      HGR61
    7     6    11    10	 9 ;     CG2R61     CG2R61     CG2R61     CG2R61
    7     6    11    61	 9 ;     CG2R61     CG2R61     CG2R61      HGR61
    3     6    11    10	 9 ;      CG2O1     CG2R61     CG2R61     CG2R61
    3     6    11    61	 9 ;      CG2O1     CG2R61     CG2R61      HGR61
    6     7     8    12	 9 ;     CG2R61     CG2R61     CG2R61      CG2O1
    6     7     8     9	 9 ;     CG2R61     CG2R61     CG2R61     CG2R61
   59     7     8    12	 9 ;      HGR61     CG2R61     CG2R61      CG2O1
   59     7     8     9	 9 ;      HGR61     CG2R61     CG2R61     CG2R61
    9     8    12    13	 9 ;     CG2R61     CG2R61      CG2O1      OG2D1
    9     8    12    14	 9 ;     CG2R61     CG2R61      CG2O1      NG2S1
    7     8    12    13	 9 ;     CG2R61     CG2R61      CG2O1      OG2D1
    7     8    12    14	 9 ;     CG2R61     CG2R61      CG2O1      NG2S1
   12     8     9    10	 9 ;      CG2O1     CG2R61     CG2R61     CG2R61
   12     8     9    60	 9 ;      CG2O1     CG2R61     CG2R61      HGR61
    7     8     9    10	 9 ;     CG2R61     CG2R61     CG2R61     CG2R61
    7     8     9    60	 9 ;     CG2R61     CG2R61     CG2R61      HGR61
    8     9    10    24	 9 ;     CG2R61     CG2R61     CG2R61      NG301
    8     9    10    11	 9 ;     CG2R61     CG2R61     CG2R61     CG2R61
   60     9    10    24	 9 ;      HGR61     CG2R61     CG2R61      NG301
   60     9    10    11	 9 ;      HGR61     CG2R61     CG2R61     CG2R61
    9    10    24    25	 9 ;     CG2R61     CG2R61      NG301      CG331
    9    10    24    26	 9 ;     CG2R61     CG2R61      NG301      SG3O2
   11    10    24    25	 9 ;     CG2R61     CG2R61      NG301      CG331
   11    10    24    26	 9 ;     CG2R61     CG2R61      NG301      SG3O2
    9    10    11     6	 9 ;     CG2R61     CG2R61     CG2R61     CG2R61
    9    10    11    61	 9 ;     CG2R61     CG2R61     CG2R61      HGR61
   24    10    11     6	 9 ;      NG301     CG2R61     CG2R61     CG2R61
   24    10    11    61	 9 ;      NG301     CG2R61     CG2R61      HGR61
   13    12    14    16	 9 ;      OG2D1      CG2O1      NG2S1      CG311
   13    12    14    15	 9 ;      OG2D1      CG2O1      NG2S1       HGP1
    8    12    14    16	 9 ;     CG2R61      CG2O1      NG2S1      CG311
    8    12    14    15	 9 ;     CG2R61      CG2O1      NG2S1       HGP1
   12    14    16    17	 9 ;      CG2O1      NG2S1      CG311      CG331
   12    14    16    18	 9 ;      CG2O1      NG2S1      CG311     CG2R61
   12    14    16    62	 9 ;      CG2O1      NG2S1      CG311       HGA1
   15    14    16    17	 9 ;       HGP1      NG2S1      CG311      CG331
   15    14    16    18	 9 ;       HGP1      NG2S1      CG311     CG2R61
   15    14    16    62	 9 ;       HGP1      NG2S1      CG311       HGA1
   18    16    17    85	 9 ;     CG2R61      CG311      CG331       HGA3
   18    16    17    86	 9 ;     CG2R61      CG311      CG331       HGA3
   18    16    17    87	 9 ;     CG2R61      CG311      CG331       HGA3
   14    16    17    85	 9 ;      NG2S1      CG311      CG331       HGA3
   14    16    17    86	 9 ;      NG2S1      CG311      CG331       HGA3
   14    16    17    87	 9 ;      NG2S1      CG311      CG331       HGA3
   62    16    17    85	 9 ;       HGA1      CG311      CG331       HGA3
   62    16    17    86	 9 ;       HGA1      CG311      CG331       HGA3
   62    16    17    87	 9 ;       HGA1      CG311      CG331       HGA3
   17    16    18    19	 9 ;      CG331      CG311     CG2R61     CG2R61
   17    16    18    23	 9 ;      CG331      CG311     CG2R61     CG2R61
   14    16    18    19	 9 ;      NG2S1      CG311     CG2R61     CG2R61
   14    16    18    23	 9 ;      NG2S1      CG311     CG2R61     CG2R61
   62    16    18    19	 9 ;       HGA1      CG311     CG2R61     CG2R61
   62    16    18    23	 9 ;       HGA1      CG311     CG2R61     CG2R61
   16    18    19    20	 9 ;      CG311     CG2R61     CG2R61     CG2R61
   16    18    19    63	 9 ;      CG311     CG2R61     CG2R61      HGR61
   23    18    19    20	 9 ;     CG2R61     CG2R61     CG2R61     CG2R61
   23    18    19    63	 9 ;     CG2R61     CG2R61     CG2R61      HGR61
   19    18    23    22	 9 ;     CG2R61     CG2R61     CG2R61     CG2R61
   19    18    23    67	 9 ;     CG2R61     CG2R61     CG2R61      HGR61
   16    18    23    22	 9 ;      CG311     CG2R61     CG2R61     CG2R61
   16    18    23    67	 9 ;      CG311     CG2R61     CG2R61      HGR61
   18    19    20    21	 9 ;     CG2R61     CG2R61     CG2R61     CG2R61
   18    19    20    64	 9 ;     CG2R61     CG2R61     CG2R61      HGR61
   63    19    20    21	 9 ;      HGR61     CG2R61     CG2R61     CG2R61
   63    19    20    64	 9 ;      HGR61     CG2R61     CG2R61      HGR61
   19    20    21    22	 9 ;     CG2R61     CG2R61     CG2R61     CG2R61
   19    20    21    65	 9 ;     CG2R61     CG2R61     CG2R61      HGR61
   64    20    21    22	 9 ;      HGR61     CG2R61     CG2R61     CG2R61
   64    20    21    65	 9 ;      HGR61     CG2R61     CG2R61      HGR61
   20    21    22    23	 9 ;     CG2R61     CG2R61     CG2R61     CG2R61
   20    21    22    66	 9 ;     CG2R61     CG2R61     CG2R61      HGR61
   65    21    22    23	 9 ;      HGR61     CG2R61     CG2R61     CG2R61
   65    21    22    66	 9 ;      HGR61     CG2R61     CG2R61      HGR61
   21    22    23    18	 9 ;     CG2R61     CG2R61     CG2R61     CG2R61
   21    22    23    67	 9 ;     CG2R61     CG2R61     CG2R61      HGR61
   66    22    23    18	 9 ;      HGR61     CG2R61     CG2R61     CG2R61
   66    22    23    67	 9 ;      HGR61     CG2R61     CG2R61      HGR61
   10    24    25    88	 9 ;     CG2R61      NG301      CG331       HGA3
   10    24    25    89	 9 ;     CG2R61      NG301      CG331       HGA3
   10    24    25    90	 9 ;     CG2R61      NG301      CG331       HGA3
   26    24    25    88	 9 ;      SG3O2      NG301      CG331       HGA3
   26    24    25    89	 9 ;      SG3O2      NG301      CG331       HGA3
   26    24    25    90	 9 ;      SG3O2      NG301      CG331       HGA3
   25    24    26    29	 9 ;      CG331      NG301      SG3O2      CG331
   25    24    26    28	 9 ;      CG331      NG301      SG3O2      OG2P1
   25    24    26    27	 9 ;      CG331      NG301      SG3O2      OG2P1
   10    24    26    29	 9 ;     CG2R61      NG301      SG3O2      CG331
   10    24    26    28	 9 ;     CG2R61      NG301      SG3O2      OG2P1
   10    24    26    27	 9 ;     CG2R61      NG301      SG3O2      OG2P1
   24    26    29    91	 9 ;      NG301      SG3O2      CG331       HGA3
   24    26    29    92	 9 ;      NG301      SG3O2      CG331       HGA3
   24    26    29    93	 9 ;      NG301      SG3O2      CG331       HGA3
   28    26    29    91	 9 ;      OG2P1      SG3O2      CG331       HGA3
   28    26    29    92	 9 ;      OG2P1      SG3O2      CG331       HGA3
   28    26    29    93	 9 ;      OG2P1      SG3O2      CG331       HGA3
   27    26    29    91	 9 ;      OG2P1      SG3O2      CG331       HGA3
   27    26    29    92	 9 ;      OG2P1      SG3O2      CG331       HGA3
   27    26    29    93	 9 ;      OG2P1      SG3O2      CG331       HGA3
    1    30    31    32	 9 ;      CG311      CG311      OG311       HGP1
   33    30    31    32	 9 ;      CG321      CG311      OG311       HGP1
   68    30    31    32	 9 ;       HGA1      CG311      OG311       HGP1
    1    30    33    34	 9 ;      CG311      CG311      CG321      CG311
    1    30    33    69	 9 ;      CG311      CG311      CG321       HGA2
    1    30    33    70	 9 ;      CG311      CG311      CG321       HGA2
   31    30    33    34	 9 ;      OG311      CG311      CG321      CG311
   31    30    33    69	 9 ;      OG311      CG311      CG321       HGA2
   31    30    33    70	 9 ;      OG311      CG311      CG321       HGA2
   68    30    33    34	 9 ;       HGA1      CG311      CG321      CG311
   68    30    33    69	 9 ;       HGA1      CG311      CG321       HGA2
   68    30    33    70	 9 ;       HGA1      CG311      CG321       HGA2
   30    33    34    35	 9 ;      CG311      CG321      CG311      CG321
   30    33    34    46	 9 ;      CG311      CG321      CG311      OG301
   30    33    34    71	 9 ;      CG311      CG321      CG311       HGA1
   69    33    34    35	 9 ;       HGA2      CG321      CG311      CG321
   69    33    34    46	 9 ;       HGA2      CG321      CG311      OG301
   69    33    34    71	 9 ;       HGA2      CG321      CG311       HGA1
   70    33    34    35	 9 ;       HGA2      CG321      CG311      CG321
   70    33    34    46	 9 ;       HGA2      CG321      CG311      OG301
   70    33    34    71	 9 ;       HGA2      CG321      CG311       HGA1
   46    34    35    36	 9 ;      OG301      CG311      CG321      OG301
   46    34    35    72	 9 ;      OG301      CG311      CG321       HGA2
   46    34    35    73	 9 ;      OG301      CG311      CG321       HGA2
   33    34    35    36	 9 ;      CG321      CG311      CG321      OG301
   33    34    35    72	 9 ;      CG321      CG311      CG321       HGA2
   33    34    35    73	 9 ;      CG321      CG311      CG321       HGA2
   71    34    35    36	 9 ;       HGA1      CG311      CG321      OG301
   71    34    35    72	 9 ;       HGA1      CG311      CG321       HGA2
   71    34    35    73	 9 ;       HGA1      CG311      CG321       HGA2
   35    34    46    47	 9 ;      CG321      CG311      OG301      CG331
   33    34    46    47	 9 ;      CG321      CG311      OG301      CG331
   71    34    46    47	 9 ;       HGA1      CG311      OG301      CG331
   34    35    36    37	 9 ;      CG311      CG321      OG301      CG321
   72    35    36    37	 9 ;       HGA2      CG321      OG301      CG321
   73    35    36    37	 9 ;       HGA2      CG321      OG301      CG321
   35    36    37    38	 9 ;      CG321      OG301      CG321     CG2R61
   35    36    37    74	 9 ;      CG321      OG301      CG321       HGA2
   35    36    37    75	 9 ;      CG321      OG301      CG321       HGA2
   36    37    38    43	 9 ;      OG301      CG321     CG2R61     CG2R61
   36    37    38    39	 9 ;      OG301      CG321     CG2R61     CG2R61
   74    37    38    43	 9 ;       HGA2      CG321     CG2R61     CG2R61
   74    37    38    39	 9 ;       HGA2      CG321     CG2R61     CG2R61
   75    37    38    43	 9 ;       HGA2      CG321     CG2R61     CG2R61
   75    37    38    39	 9 ;       HGA2      CG321     CG2R61     CG2R61
   39    38    43    42	 9 ;     CG2R61     CG2R61     CG2R61     CG2R61
   39    38    43    79	 9 ;     CG2R61     CG2R61     CG2R61      HGR61
   37    38    43    42	 9 ;      CG321     CG2R61     CG2R61     CG2R61
   37    38    43    79	 9 ;      CG321     CG2R61     CG2R61      HGR61
   43    38    39    40	 9 ;     CG2R61     CG2R61     CG2R61     CG2R61
   43    38    39    76	 9 ;     CG2R61     CG2R61     CG2R61      HGR61
   37    38    39    40	 9 ;      CG321     CG2R61     CG2R61     CG2R61
   37    38    39    76	 9 ;      CG321     CG2R61     CG2R61      HGR61
   38    39    40    41	 9 ;     CG2R61     CG2R61     CG2R61     CG2R61
   38    39    40    77	 9 ;     CG2R61     CG2R61     CG2R61      HGR61
   76    39    40    41	 9 ;      HGR61     CG2R61     CG2R61     CG2R61
   76    39    40    77	 9 ;      HGR61     CG2R61     CG2R61      HGR61
   39    40    41    44	 9 ;     CG2R61     CG2R61     CG2R61      OG301
   39    40    41    42	 9 ;     CG2R61     CG2R61     CG2R61     CG2R61
   77    40    41    44	 9 ;      HGR61     CG2R61     CG2R61      OG301
   77    40    41    42	 9 ;      HGR61     CG2R61     CG2R61     CG2R61
   42    41    44    45	 9 ;     CG2R61     CG2R61      OG301      CG331
   40    41    44    45	 9 ;     CG2R61     CG2R61      OG301      CG331
   44    41    42    43	 9 ;      OG301     CG2R61     CG2R61     CG2R61
   44    41    42    78	 9 ;      OG301     CG2R61     CG2R61      HGR61
   40    41    42    43	 9 ;     CG2R61     CG2R61     CG2R61     CG2R61
   40    41    42    78	 9 ;     CG2R61     CG2R61     CG2R61      HGR61
   41    42    43    38	 9 ;     CG2R61     CG2R61     CG2R61     CG2R61
   41    42    43    79	 9 ;     CG2R61     CG2R61     CG2R61      HGR61
   78    42    43    38	 9 ;      HGR61     CG2R61     CG2R61     CG2R61
   78    42    43    79	 9 ;      HGR61     CG2R61     CG2R61      HGR61
   41    44    45    94	 9 ;     CG2R61      OG301      CG331       HGA3
   41    44    45    95	 9 ;     CG2R61      OG301      CG331       HGA3
   41    44    45    96	 9 ;     CG2R61      OG301      CG331       HGA3
   34    46    47    97	 9 ;      CG311      OG301      CG331       HGA3
   34    46    47    98	 9 ;      CG311      OG301      CG331       HGA3
   34    46    47    99	 9 ;      CG311      OG301      CG331       HGA3
    1    48    49    50	 9 ;      CG311      CG321      OG301     CG2R61
   80    48    49    50	 9 ;       HGA2      CG321      OG301     CG2R61
   81    48    49    50	 9 ;       HGA2      CG321      OG301     CG2R61
   48    49    50    51	 9 ;      CG321      OG301     CG2R61     CG2R61
   48    49    50    57	 9 ;      CG321      OG301     CG2R61     CG2R61
   49    50    51    52	 9 ;      OG301     CG2R61     CG2R61     CG2R66
   49    50    51    82	 9 ;      OG301     CG2R61     CG2R61      HGR62
   57    50    51    52	 9 ;     CG2R61     CG2R61     CG2R61     CG2R66
   57    50    51    82	 9 ;     CG2R61     CG2R61     CG2R61      HGR62
   49    50    57    55	 9 ;      OG301     CG2R61     CG2R61     CG2R66
   49    50    57    84	 9 ;      OG301     CG2R61     CG2R61      HGR62
   51    50    57    55	 9 ;     CG2R61     CG2R61     CG2R61     CG2R66
   51    50    57    84	 9 ;     CG2R61     CG2R61     CG2R61      HGR62
   50    51    52    53	 9 ;     CG2R61     CG2R61     CG2R66       FGR1
   50    51    52    54	 9 ;     CG2R61     CG2R61     CG2R66     CG2R61
   82    51    52    53	 9 ;      HGR62     CG2R61     CG2R66       FGR1
   82    51    52    54	 9 ;      HGR62     CG2R61     CG2R66     CG2R61
   51    52    54    55	 9 ;     CG2R61     CG2R66     CG2R61     CG2R66
   51    52    54    83	 9 ;     CG2R61     CG2R66     CG2R61      HGR62
   53    52    54    55	 9 ;       FGR1     CG2R66     CG2R61     CG2R66
   53    52    54    83	 9 ;       FGR1     CG2R66     CG2R61      HGR62
   52    54    55    57	 9 ;     CG2R66     CG2R61     CG2R66     CG2R61
   52    54    55    56	 9 ;     CG2R66     CG2R61     CG2R66       FGR1
   83    54    55    57	 9 ;      HGR62     CG2R61     CG2R66     CG2R61
   83    54    55    56	 9 ;      HGR62     CG2R61     CG2R66       FGR1
   54    55    57    50	 9 ;     CG2R61     CG2R66     CG2R61     CG2R61
   54    55    57    84	 9 ;     CG2R61     CG2R66     CG2R61      HGR62
   56    55    57    50	 9 ;       FGR1     CG2R66     CG2R61     CG2R61
   56    55    57    84	 9 ;       FGR1     CG2R66     CG2R61      HGR62

[ dihedrals ]
;	ai	  aj	ak	  al funct			  c0			c1			  c2			c3
    3     6     2     4	 2
   12     8    14    13	 2

