Giant Rising Ordinary Mutants for A Clerical Setup
   99
    1LIG     C1    1  -2.064   0.614  -1.285
    1LIG     N1    2  -1.955   0.640  -1.384
    1LIG     C2    3  -1.824   0.593  -1.366
    1LIG     O1    4  -1.788   0.533  -1.265
    1LIG     H1    5  -1.987   0.657  -1.478
    1LIG     C3    6  -1.725   0.616  -1.474
    1LIG     C4    7  -1.604   0.548  -1.473
    1LIG     C5    8  -1.504   0.583  -1.565
    1LIG     C6    9  -1.531   0.675  -1.667
    1LIG     C7   10  -1.656   0.736  -1.675
    1LIG     C8   11  -1.753   0.707  -1.577
    1LIG     C9   12  -1.370   0.520  -1.553
    1LIG     O2   13  -1.272   0.574  -1.602
    1LIG     N2   14  -1.368   0.399  -1.487
    1LIG     H2   15  -1.449   0.365  -1.438
    1LIG    C10   16  -1.261   0.303  -1.508
    1LIG    C11   17  -1.275   0.240  -1.647
    1LIG    C12   18  -1.257   0.204  -1.393
    1LIG    C13   19  -1.225   0.070  -1.421
    1LIG    C14   20  -1.227  -0.027  -1.321
    1LIG    C15   21  -1.259   0.007  -1.190
    1LIG    C16   22  -1.286   0.140  -1.159
    1LIG    C17   23  -1.283   0.238  -1.259
    1LIG     N3   24  -1.687   0.830  -1.778
    1LIG    C18   25  -1.762   0.786  -1.896
    1LIG      S   26  -1.672   0.996  -1.748
    1LIG     O3   27  -1.654   1.014  -1.606
    1LIG     O4   28  -1.776   1.068  -1.820
    1LIG    C19   29  -1.516   1.034  -1.826
    1LIG    C20   30  -2.181   0.715  -1.307
    1LIG     O5   31  -2.127   0.839  -1.353
    1LIG     H3   32  -2.192   0.874  -1.416
    1LIG    C21   33  -2.291   0.674  -1.405
    1LIG    C22   34  -2.270   0.718  -1.551
    1LIG    C23   35  -2.239   0.598  -1.643
    1LIG     O6   36  -2.098   0.570  -1.644
    1LIG    C24   37  -2.072   0.429  -1.637
    1LIG    C25   38  -1.934   0.395  -1.689
    1LIG    C26   39  -1.847   0.313  -1.617
    1LIG    C27   40  -1.717   0.288  -1.663
    1LIG    C28   41  -1.671   0.346  -1.782
    1LIG    C29   42  -1.759   0.425  -1.856
    1LIG    C30   43  -1.889   0.449  -1.811
    1LIG     O7   44  -1.546   0.332  -1.834
    1LIG    C31   45  -1.500   0.438  -1.916
    1LIG     O8   46  -2.390   0.782  -1.600
    1LIG    C32   47  -2.398   0.791  -1.741
    1LIG    C33   48  -2.116   0.467  -1.293
    1LIG     O9   49  -2.116   0.400  -1.165
    1LIG    C34   50  -2.201   0.292  -1.154
    1LIG    C35   51  -2.287   0.270  -1.263
    1LIG    C36   52  -2.380   0.166  -1.261
    1LIG     F1   53  -2.463   0.148  -1.365
    1LIG    C37   54  -2.389   0.079  -1.152
    1LIG    C38   55  -2.299   0.097  -1.048
    1LIG     F2   56  -2.303   0.012  -0.944
    1LIG    C39   57  -2.206   0.201  -1.048
    1LIG     HC   58  -2.023   0.630  -1.185
    1LIG    HC1   59  -1.587   0.469  -1.402
    1LIG    HC2   60  -1.454   0.699  -1.740
    1LIG    HC3   61  -1.850   0.754  -1.582
    1LIG    HC4   62  -1.167   0.359  -1.507
    1LIG    HC5   63  -1.199   0.042  -1.522
    1LIG    HC6   64  -1.204  -0.130  -1.345
    1LIG    HC7   65  -1.263  -0.068  -1.113
    1LIG    HC8   66  -1.309   0.168  -1.057
    1LIG    HC9   67  -1.300   0.342  -1.233
    1LIG   HC10   68  -2.228   0.732  -1.210
    1LIG   HC11   69  -2.385   0.718  -1.370
    1LIG   HC12   70  -2.301   0.566  -1.402
    1LIG   HC13   71  -2.188   0.789  -1.555
    1LIG   HC14   72  -2.272   0.621  -1.744
    1LIG   HC15   73  -2.293   0.510  -1.607
    1LIG   HC16   74  -2.080   0.397  -1.534
    1LIG   HC17   75  -2.147   0.376  -1.697
    1LIG   HC18   76  -1.880   0.268  -1.525
    1LIG   HC19   77  -1.651   0.225  -1.606
    1LIG   HC20   78  -1.726   0.467  -1.950
    1LIG   HC21   79  -1.956   0.510  -1.870
    1LIG   HC22   80  -2.219   0.468  -1.331
    1LIG   HC23   81  -2.054   0.410  -1.362
    1LIG   HC24   82  -2.282   0.334  -1.349
    1LIG   HC25   83  -2.463   0.001  -1.150
    1LIG   HC26   84  -2.137   0.212  -0.965
    1LIG   HC27   85  -1.293   0.317  -1.721
    1LIG   HC28   86  -1.183   0.186  -1.672
    1LIG   HC29   87  -1.359   0.169  -1.646
    1LIG   HC30   88  -1.793   0.873  -1.955
    1LIG   HC31   89  -1.699   0.721  -1.957
    1LIG   HC32   90  -1.850   0.730  -1.864
    1LIG   HC33   91  -1.494   1.140  -1.814
    1LIG   HC34   92  -1.521   1.010  -1.932
    1LIG   HC35   93  -1.437   0.975  -1.779
    1LIG   HC36   94  -1.392   0.429  -1.930
    1LIG   HC37   95  -1.550   0.434  -2.013
    1LIG   HC38   96  -1.522   0.534  -1.867
    1LIG   HC39   97  -2.462   0.876  -1.768
    1LIG   HC40   98  -2.299   0.806  -1.783
    1LIG   HC41   99  -2.441   0.700  -1.781
   0.00000   0.00000   0.00000
