Gromacs Runs One Microsecond At Cannonball Speeds
   73
    1LIG      S    1  -1.853   0.498  -1.185
    1LIG     O1    2  -1.714   0.457  -1.193
    1LIG     O2    3  -1.929   0.483  -1.062
    1LIG     C1    4  -1.869   0.665  -1.244
    1LIG     C2    5  -1.800   0.686  -1.380
    1LIG     C3    6  -1.865   0.586  -1.484
    1LIG     C4    7  -1.872   0.435  -1.446
    1LIG     C5    8  -1.936   0.408  -1.311
    1LIG     C6    9  -1.644   0.689  -1.381
    1LIG     C7   10  -1.572   0.777  -1.481
    1LIG     C8   11  -1.447   0.738  -1.534
    1LIG     C9   12  -1.368   0.824  -1.613
    1LIG    C10   13  -1.414   0.954  -1.641
    1LIG    C11   14  -1.541   0.989  -1.593
    1LIG      F   15  -1.588   1.112  -1.619
    1LIG    C12   16  -1.616   0.905  -1.511
    1LIG     O3   17  -1.245   0.773  -1.646
    1LIG    C13   18  -1.228   0.631  -1.667
    1LIG    C14   19  -1.112   0.561  -1.593
    1LIG    C15   20  -1.067   0.498  -1.725
    1LIG    C16   21  -1.160   0.594  -1.800
    1LIG     N1   22  -1.339   1.049  -1.712
    1LIG     H1   23  -1.247   1.064  -1.670
    1LIG     H2   24  -1.330   1.023  -1.810
    1LIG     O4   25  -1.800   0.589  -1.611
    1LIG     H3   26  -1.767   0.500  -1.636
    1LIG     N2   27  -1.734   0.377  -1.461
    1LIG     H4   28  -1.671   0.456  -1.485
    1LIG     H5   29  -1.699   0.341  -1.372
    1LIG    C17   30  -1.708   0.266  -1.557
    1LIG    C18   31  -1.561   0.269  -1.591
    1LIG    C19   32  -1.468   0.214  -1.501
    1LIG    C20   33  -1.333   0.199  -1.536
    1LIG    C21   34  -1.294   0.240  -1.665
    1LIG    C22   35  -1.385   0.297  -1.753
    1LIG    C23   36  -1.518   0.312  -1.717
    1LIG    C24   37  -1.229   0.138  -1.440
    1LIG    C25   38  -1.286   0.026  -1.350
    1LIG    C26   39  -1.113   0.078  -1.521
    1LIG    C27   40  -1.173   0.247  -1.346
    1LIG    HC2   41  -1.823   0.732  -1.172
    1LIG    HC3   42  -1.974   0.689  -1.254
    1LIG     HC   43  -1.831   0.785  -1.413
    1LIG    HC1   44  -1.968   0.619  -1.500
    1LIG    HC4   45  -1.935   0.387  -1.521
    1LIG    HC5   46  -2.040   0.438  -1.314
    1LIG    HC6   47  -1.930   0.301  -1.290
    1LIG    HC7   48  -1.610   0.587  -1.397
    1LIG    HC8   49  -1.612   0.719  -1.281
    1LIG    HC9   50  -1.410   0.638  -1.513
    1LIG   HC10   51  -1.710   0.941  -1.471
    1LIG   HC11   52  -1.322   0.577  -1.654
    1LIG   HC12   53  -1.040   0.629  -1.549
    1LIG   HC13   54  -1.147   0.486  -1.522
    1LIG   HC14   55  -0.961   0.512  -1.748
    1LIG   HC15   56  -1.098   0.394  -1.735
    1LIG   HC16   57  -1.226   0.545  -1.872
    1LIG   HC17   58  -1.106   0.678  -1.844
    1LIG   HC18   59  -1.767   0.281  -1.647
    1LIG   HC19   60  -1.734   0.171  -1.510
    1LIG   HC20   61  -1.501   0.182  -1.403
    1LIG   HC21   62  -1.191   0.228  -1.696
    1LIG   HC22   63  -1.352   0.330  -1.851
    1LIG   HC23   64  -1.589   0.357  -1.785
    1LIG   HC24   65  -1.326  -0.054  -1.413
    1LIG   HC25   66  -1.365   0.067  -1.287
    1LIG   HC26   67  -1.206  -0.014  -1.287
    1LIG   HC27   68  -1.132   0.329  -1.405
    1LIG   HC28   69  -1.095   0.205  -1.283
    1LIG   HC29   70  -1.254   0.285  -1.283
    1LIG   HC30   71  -1.050   0.018  -1.456
    1LIG   HC31   72  -1.053   0.159  -1.565
    1LIG   HC32   73  -1.153   0.015  -1.601
   0.00000   0.00000   0.00000
