; Created by cgenff_charmm2gmx.py

[ moleculetype ]
; Name			   nrexcl
LIG				 3

[ atoms ]
;	 nr		  type	resnr residue  atom   cgnr	   charge		mass  typeB    chargeB		massB
; residue	 1 LIG rtp LIG q	qsum
     1      CG311      1    LIG     C1      1     -0.029     12.011   ;
     2      CG321      1    LIG     C2      2     -0.095     12.011   ;
     3     CG2R61      1    LIG     C3      3      0.057     12.011   ;
     4     CG2R61      1    LIG     C4      4     -0.218     12.011   ;
     5     CG2R66      1    LIG     C5      5      0.261     12.011   ;
     6       FGR1      1    LIG     F1      6     -0.210     18.998   ;
     7     CG2R61      1    LIG     C6      7     -0.240     12.011   ;
     8     CG2R66      1    LIG     C7      8      0.261     12.011   ;
     9     CG2R61      1    LIG     C8      9     -0.218     12.011   ;
    10       FGR1      1    LIG     F2     10     -0.210     18.998   ;
    11      NG2S1      1    LIG     N1     11     -0.371     14.007   ;
    12      CG2O1      1    LIG     C9     12      0.510     12.011   ;
    13      OG2D1      1    LIG     O1     13     -0.511     15.999   ;
    14       HGP1      1    LIG     H1     14      0.269      1.008   ;
    15      CG311      1    LIG    C10     15     -0.013     12.011   ;
    16      CG331      1    LIG    C11     16     -0.232     12.011   ;
    17     NG2R53      1    LIG     N2     17     -0.084     14.007   ;
    18     CG3C52      1    LIG    C12     18     -0.138     12.011   ;
    19     CG3C52      1    LIG    C13     19     -0.227     12.011   ;
    20     CG3C51      1    LIG    C14     20     -0.082     12.011   ;
    21     CG2R53      1    LIG    C15     21      0.407     12.011   ;
    22      OG2D1      1    LIG     O2     22     -0.496     15.999   ;
    23      CG321      1    LIG    C16     23     -0.155     12.011   ;
    24      CG321      1    LIG    C17     24     -0.178     12.011   ;
    25      CG321      1    LIG    C18     25     -0.177     12.011   ;
    26      CG331      1    LIG    C19     26     -0.270     12.011   ;
    27      CG311      1    LIG    C20     27      0.111     12.011   ;
    28      OG311      1    LIG     O3     28     -0.598     15.999   ;
    29       HGP1      1    LIG     H2     29      0.422      1.008   ;
    30      CG314      1    LIG    C21     30      0.081     12.011   ;
    31      NG3P2      1    LIG     N3     31     -0.494     14.007   ;
    32      CG324      1    LIG    C22     32      0.181     12.011   ;
    33       HGP2      1    LIG     H3     33      0.346      1.008   ;
    34       HGP2      1    LIG     H4     34      0.346      1.008   ;
    35     CG2R61      1    LIG    C23     35      0.019     12.011   ;
    36     CG2R61      1    LIG    C24     36     -0.193     12.011   ;
    37     CG2R61      1    LIG    C25     37     -0.115     12.011   ;
    38      CG321      1    LIG    C26     38      0.138     12.011   ;
    39     CG2R61      1    LIG    C27     39     -0.116     12.011   ;
    40     CG2R61      1    LIG    C28     40     -0.112     12.011   ;
    41     CG2R61      1    LIG    C29     41     -0.111     12.011   ;
    42       HGA1      1    LIG     HC     42      0.090      1.008   ;
    43       HGA2      1    LIG    HC2     43      0.090      1.008   ;
    44       HGA2      1    LIG    HC3     44      0.090      1.008   ;
    45      HGR62      1    LIG    HC1     45      0.174      1.008   ;
    46      HGR62      1    LIG    HC4     46      0.186      1.008   ;
    47      HGR62      1    LIG    HC5     47      0.174      1.008   ;
    48       HGA1      1    LIG    HC6     48      0.090      1.008   ;
    49       HGA3      1    LIG    HC7     49      0.090      1.008   ;
    50       HGA3      1    LIG    HC8     50      0.090      1.008   ;
    51       HGA3      1    LIG    HC9     51      0.090      1.008   ;
    52       HGA2      1    LIG   HC10     52      0.090      1.008   ;
    53       HGA2      1    LIG   HC11     53      0.090      1.008   ;
    54       HGA2      1    LIG   HC12     54      0.090      1.008   ;
    55       HGA2      1    LIG   HC13     55      0.090      1.008   ;
    56       HGA1      1    LIG   HC14     56      0.115      1.008   ;
    57       HGA2      1    LIG   HC15     57      0.090      1.008   ;
    58       HGA2      1    LIG   HC16     58      0.090      1.008   ;
    59       HGA2      1    LIG   HC17     59      0.090      1.008   ;
    60       HGA2      1    LIG   HC18     60      0.090      1.008   ;
    61       HGA2      1    LIG   HC19     61      0.090      1.008   ;
    62       HGA2      1    LIG   HC20     62      0.090      1.008   ;
    63       HGA3      1    LIG   HC21     63      0.090      1.008   ;
    64       HGA3      1    LIG   HC22     64      0.090      1.008   ;
    65       HGA3      1    LIG   HC23     65      0.090      1.008   ;
    66       HGA1      1    LIG   HC24     66      0.090      1.008   ;
    67       HGA1      1    LIG   HC25     67      0.121      1.008   ;
    68       HGA2      1    LIG   HC26     68      0.090      1.008   ;
    69       HGA2      1    LIG   HC27     69      0.090      1.008   ;
    70      HGR61      1    LIG   HC28     70      0.116      1.008   ;
    71       HGA2      1    LIG   HC29     71      0.090      1.008   ;
    72       HGA2      1    LIG   HC30     72      0.090      1.008   ;
    73      HGR61      1    LIG   HC31     73      0.116      1.008   ;
    74      HGR61      1    LIG   HC32     74      0.116      1.008   ;
    75      HGR61      1    LIG   HC33     75      0.116      1.008   ;

[ bonds ]
;	ai	  aj funct			  c0			c1			  c2			c3
    1    11	 1 ;       CG311      NG2S1
    1    27	 1 ;       CG311      CG311
    1     2	 1 ;       CG311      CG321
    1    42	 1 ;       CG311       HGA1
    2     3	 1 ;       CG321     CG2R61
    2    43	 1 ;       CG321       HGA2
    2    44	 1 ;       CG321       HGA2
    3     9	 1 ;      CG2R61     CG2R61
    3     4	 1 ;      CG2R61     CG2R61
    4     5	 1 ;      CG2R61     CG2R66
    4    45	 1 ;      CG2R61      HGR62
    5     7	 1 ;      CG2R66     CG2R61
    5     6	 1 ;      CG2R66       FGR1
    7     8	 1 ;      CG2R61     CG2R66
    7    46	 1 ;      CG2R61      HGR62
    8    10	 1 ;      CG2R66       FGR1
    8     9	 1 ;      CG2R66     CG2R61
    9    47	 1 ;      CG2R61      HGR62
   11    12	 1 ;       NG2S1      CG2O1
   11    14	 1 ;       NG2S1       HGP1
   12    13	 1 ;       CG2O1      OG2D1
   12    15	 1 ;       CG2O1      CG311
   15    16	 1 ;       CG311      CG331
   15    17	 1 ;       CG311     NG2R53
   15    48	 1 ;       CG311       HGA1
   16    49	 1 ;       CG331       HGA3
   16    50	 1 ;       CG331       HGA3
   16    51	 1 ;       CG331       HGA3
   17    18	 1 ;      NG2R53     CG3C52
   17    21	 1 ;      NG2R53     CG2R53
   18    19	 1 ;      CG3C52     CG3C52
   18    52	 1 ;      CG3C52       HGA2
   18    53	 1 ;      CG3C52       HGA2
   19    20	 1 ;      CG3C52     CG3C51
   19    54	 1 ;      CG3C52       HGA2
   19    55	 1 ;      CG3C52       HGA2
   20    21	 1 ;      CG3C51     CG2R53
   20    23	 1 ;      CG3C51      CG321
   20    56	 1 ;      CG3C51       HGA1
   21    22	 1 ;      CG2R53      OG2D1
   23    24	 1 ;       CG321      CG321
   23    57	 1 ;       CG321       HGA2
   23    58	 1 ;       CG321       HGA2
   24    25	 1 ;       CG321      CG321
   24    59	 1 ;       CG321       HGA2
   24    60	 1 ;       CG321       HGA2
   25    26	 1 ;       CG321      CG331
   25    61	 1 ;       CG321       HGA2
   25    62	 1 ;       CG321       HGA2
   26    63	 1 ;       CG331       HGA3
   26    64	 1 ;       CG331       HGA3
   26    65	 1 ;       CG331       HGA3
   27    28	 1 ;       CG311      OG311
   27    30	 1 ;       CG311      CG314
   27    66	 1 ;       CG311       HGA1
   28    29	 1 ;       OG311       HGP1
   30    31	 1 ;       CG314      NG3P2
   30    38	 1 ;       CG314      CG321
   30    67	 1 ;       CG314       HGA1
   31    33	 1 ;       NG3P2       HGP2
   31    32	 1 ;       NG3P2      CG324
   31    34	 1 ;       NG3P2       HGP2
   32    35	 1 ;       CG324     CG2R61
   32    68	 1 ;       CG324       HGA2
   32    69	 1 ;       CG324       HGA2
   35    37	 1 ;      CG2R61     CG2R61
   35    36	 1 ;      CG2R61     CG2R61
   36    38	 1 ;      CG2R61      CG321
   36    39	 1 ;      CG2R61     CG2R61
   37    41	 1 ;      CG2R61     CG2R61
   37    70	 1 ;      CG2R61      HGR61
   38    71	 1 ;       CG321       HGA2
   38    72	 1 ;       CG321       HGA2
   39    40	 1 ;      CG2R61     CG2R61
   39    73	 1 ;      CG2R61      HGR61
   40    41	 1 ;      CG2R61     CG2R61
   40    74	 1 ;      CG2R61      HGR61
   41    75	 1 ;      CG2R61      HGR61

[ pairs ]
;	ai	  aj funct			  c0			c1			  c2			c3
    1     9	 1
    1     4	 1
    1    13	 1
    1    15	 1
    1    29	 1
    1    31	 1
    1    38	 1
    1    67	 1
    2    12	 1
    2    14	 1
    2    28	 1
    2    30	 1
    2    66	 1
    2     8	 1
    2    47	 1
    2     5	 1
    2    45	 1
    3    11	 1
    3    27	 1
    3    42	 1
    3     7	 1
    3     6	 1
    3    10	 1
    4    43	 1
    4    44	 1
    4     8	 1
    4    47	 1
    4    46	 1
    5     9	 1
    5    10	 1
    6    45	 1
    6     8	 1
    6    46	 1
    7    45	 1
    7    47	 1
    9    43	 1
    9    44	 1
    9    45	 1
    9    46	 1
   10    46	 1
   10    47	 1
   11    28	 1
   11    30	 1
   11    66	 1
   11    43	 1
   11    44	 1
   11    16	 1
   11    17	 1
   11    48	 1
   12    27	 1
   12    42	 1
   12    49	 1
   12    50	 1
   12    51	 1
   12    18	 1
   12    21	 1
   13    14	 1
   13    16	 1
   13    17	 1
   13    48	 1
   14    27	 1
   14    42	 1
   14    15	 1
   15    19	 1
   15    52	 1
   15    53	 1
   15    22	 1
   15    20	 1
   16    18	 1
   16    21	 1
   17    49	 1
   17    50	 1
   17    51	 1
   17    54	 1
   17    55	 1
   17    23	 1
   17    56	 1
   18    48	 1
   18    22	 1
   18    23	 1
   18    56	 1
   19    22	 1
   19    24	 1
   19    57	 1
   19    58	 1
   20    52	 1
   20    53	 1
   20    25	 1
   20    59	 1
   20    60	 1
   21    48	 1
   21    52	 1
   21    53	 1
   21    54	 1
   21    55	 1
   21    24	 1
   21    57	 1
   21    58	 1
   22    23	 1
   22    56	 1
   23    54	 1
   23    55	 1
   23    26	 1
   23    61	 1
   23    62	 1
   24    56	 1
   24    63	 1
   24    64	 1
   24    65	 1
   25    57	 1
   25    58	 1
   26    59	 1
   26    60	 1
   27    43	 1
   27    44	 1
   27    33	 1
   27    32	 1
   27    34	 1
   27    36	 1
   27    71	 1
   27    72	 1
   28    42	 1
   28    31	 1
   28    38	 1
   28    67	 1
   29    30	 1
   29    66	 1
   30    42	 1
   30    35	 1
   30    68	 1
   30    69	 1
   30    39	 1
   31    66	 1
   31    36	 1
   31    71	 1
   31    72	 1
   31    37	 1
   32    38	 1
   32    67	 1
   32    41	 1
   32    70	 1
   32    39	 1
   33    38	 1
   33    67	 1
   33    35	 1
   33    68	 1
   33    69	 1
   34    38	 1
   34    67	 1
   34    35	 1
   34    68	 1
   34    69	 1
   35    71	 1
   35    72	 1
   35    40	 1
   35    73	 1
   35    75	 1
   36    67	 1
   36    68	 1
   36    69	 1
   36    41	 1
   36    70	 1
   36    74	 1
   37    68	 1
   37    69	 1
   37    38	 1
   37    39	 1
   37    74	 1
   38    66	 1
   38    40	 1
   38    73	 1
   39    71	 1
   39    72	 1
   39    75	 1
   40    70	 1
   41    73	 1
   42    66	 1
   42    43	 1
   42    44	 1
   48    49	 1
   48    50	 1
   48    51	 1
   52    54	 1
   52    55	 1
   53    54	 1
   53    55	 1
   54    56	 1
   55    56	 1
   56    57	 1
   56    58	 1
   57    59	 1
   57    60	 1
   58    59	 1
   58    60	 1
   59    61	 1
   59    62	 1
   60    61	 1
   60    62	 1
   61    63	 1
   61    64	 1
   61    65	 1
   62    63	 1
   62    64	 1
   62    65	 1
   66    67	 1
   67    71	 1
   67    72	 1
   70    75	 1
   73    74	 1
   74    75	 1

[ angles ]
;	ai	  aj	ak funct			c0			  c1			c2			  c3
   11     1    27	5 ;      NG2S1      CG311      CG311
   11     1     2	5 ;      NG2S1      CG311      CG321
   11     1    42	5 ;      NG2S1      CG311       HGA1
   27     1     2	5 ;      CG311      CG311      CG321
   27     1    42	5 ;      CG311      CG311       HGA1
    2     1    42	5 ;      CG321      CG311       HGA1
    1     2     3	5 ;      CG311      CG321     CG2R61
    1     2    43	5 ;      CG311      CG321       HGA2
    1     2    44	5 ;      CG311      CG321       HGA2
    3     2    43	5 ;     CG2R61      CG321       HGA2
    3     2    44	5 ;     CG2R61      CG321       HGA2
   43     2    44	5 ;       HGA2      CG321       HGA2
    9     3     2	5 ;     CG2R61     CG2R61      CG321
    9     3     4	5 ;     CG2R61     CG2R61     CG2R61
    2     3     4	5 ;      CG321     CG2R61     CG2R61
    3     4     5	5 ;     CG2R61     CG2R61     CG2R66
    3     4    45	5 ;     CG2R61     CG2R61      HGR62
    5     4    45	5 ;     CG2R66     CG2R61      HGR62
    7     5     4	5 ;     CG2R61     CG2R66     CG2R61
    7     5     6	5 ;     CG2R61     CG2R66       FGR1
    4     5     6	5 ;     CG2R61     CG2R66       FGR1
    8     7     5	5 ;     CG2R66     CG2R61     CG2R66
    8     7    46	5 ;     CG2R66     CG2R61      HGR62
    5     7    46	5 ;     CG2R66     CG2R61      HGR62
   10     8     9	5 ;       FGR1     CG2R66     CG2R61
   10     8     7	5 ;       FGR1     CG2R66     CG2R61
    9     8     7	5 ;     CG2R61     CG2R66     CG2R61
    8     9     3	5 ;     CG2R66     CG2R61     CG2R61
    8     9    47	5 ;     CG2R66     CG2R61      HGR62
    3     9    47	5 ;     CG2R61     CG2R61      HGR62
   12    11    14	5 ;      CG2O1      NG2S1       HGP1
   12    11     1	5 ;      CG2O1      NG2S1      CG311
   14    11     1	5 ;       HGP1      NG2S1      CG311
   13    12    15	5 ;      OG2D1      CG2O1      CG311
   13    12    11	5 ;      OG2D1      CG2O1      NG2S1
   15    12    11	5 ;      CG311      CG2O1      NG2S1
   16    15    12	5 ;      CG331      CG311      CG2O1
   16    15    17	5 ;      CG331      CG311     NG2R53
   16    15    48	5 ;      CG331      CG311       HGA1
   12    15    17	5 ;      CG2O1      CG311     NG2R53
   12    15    48	5 ;      CG2O1      CG311       HGA1
   17    15    48	5 ;     NG2R53      CG311       HGA1
   15    16    49	5 ;      CG311      CG331       HGA3
   15    16    50	5 ;      CG311      CG331       HGA3
   15    16    51	5 ;      CG311      CG331       HGA3
   49    16    50	5 ;       HGA3      CG331       HGA3
   49    16    51	5 ;       HGA3      CG331       HGA3
   50    16    51	5 ;       HGA3      CG331       HGA3
   15    17    18	5 ;      CG311     NG2R53     CG3C52
   15    17    21	5 ;      CG311     NG2R53     CG2R53
   18    17    21	5 ;     CG3C52     NG2R53     CG2R53
   17    18    19	5 ;     NG2R53     CG3C52     CG3C52
   17    18    52	5 ;     NG2R53     CG3C52       HGA2
   17    18    53	5 ;     NG2R53     CG3C52       HGA2
   19    18    52	5 ;     CG3C52     CG3C52       HGA2
   19    18    53	5 ;     CG3C52     CG3C52       HGA2
   52    18    53	5 ;       HGA2     CG3C52       HGA2
   18    19    20	5 ;     CG3C52     CG3C52     CG3C51
   18    19    54	5 ;     CG3C52     CG3C52       HGA2
   18    19    55	5 ;     CG3C52     CG3C52       HGA2
   20    19    54	5 ;     CG3C51     CG3C52       HGA2
   20    19    55	5 ;     CG3C51     CG3C52       HGA2
   54    19    55	5 ;       HGA2     CG3C52       HGA2
   19    20    21	5 ;     CG3C52     CG3C51     CG2R53
   19    20    23	5 ;     CG3C52     CG3C51      CG321
   19    20    56	5 ;     CG3C52     CG3C51       HGA1
   21    20    23	5 ;     CG2R53     CG3C51      CG321
   21    20    56	5 ;     CG2R53     CG3C51       HGA1
   23    20    56	5 ;      CG321     CG3C51       HGA1
   17    21    22	5 ;     NG2R53     CG2R53      OG2D1
   17    21    20	5 ;     NG2R53     CG2R53     CG3C51
   22    21    20	5 ;      OG2D1     CG2R53     CG3C51
   20    23    24	5 ;     CG3C51      CG321      CG321
   20    23    57	5 ;     CG3C51      CG321       HGA2
   20    23    58	5 ;     CG3C51      CG321       HGA2
   24    23    57	5 ;      CG321      CG321       HGA2
   24    23    58	5 ;      CG321      CG321       HGA2
   57    23    58	5 ;       HGA2      CG321       HGA2
   23    24    25	5 ;      CG321      CG321      CG321
   23    24    59	5 ;      CG321      CG321       HGA2
   23    24    60	5 ;      CG321      CG321       HGA2
   25    24    59	5 ;      CG321      CG321       HGA2
   25    24    60	5 ;      CG321      CG321       HGA2
   59    24    60	5 ;       HGA2      CG321       HGA2
   24    25    26	5 ;      CG321      CG321      CG331
   24    25    61	5 ;      CG321      CG321       HGA2
   24    25    62	5 ;      CG321      CG321       HGA2
   26    25    61	5 ;      CG331      CG321       HGA2
   26    25    62	5 ;      CG331      CG321       HGA2
   61    25    62	5 ;       HGA2      CG321       HGA2
   25    26    63	5 ;      CG321      CG331       HGA3
   25    26    64	5 ;      CG321      CG331       HGA3
   25    26    65	5 ;      CG321      CG331       HGA3
   63    26    64	5 ;       HGA3      CG331       HGA3
   63    26    65	5 ;       HGA3      CG331       HGA3
   64    26    65	5 ;       HGA3      CG331       HGA3
   28    27     1	5 ;      OG311      CG311      CG311
   28    27    30	5 ;      OG311      CG311      CG314
   28    27    66	5 ;      OG311      CG311       HGA1
    1    27    30	5 ;      CG311      CG311      CG314
    1    27    66	5 ;      CG311      CG311       HGA1
   30    27    66	5 ;      CG314      CG311       HGA1
   29    28    27	5 ;       HGP1      OG311      CG311
   27    30    31	5 ;      CG311      CG314      NG3P2
   27    30    38	5 ;      CG311      CG314      CG321
   27    30    67	5 ;      CG311      CG314       HGA1
   31    30    38	5 ;      NG3P2      CG314      CG321
   31    30    67	5 ;      NG3P2      CG314       HGA1
   38    30    67	5 ;      CG321      CG314       HGA1
   33    31    30	5 ;       HGP2      NG3P2      CG314
   33    31    32	5 ;       HGP2      NG3P2      CG324
   33    31    34	5 ;       HGP2      NG3P2       HGP2
   30    31    32	5 ;      CG314      NG3P2      CG324
   30    31    34	5 ;      CG314      NG3P2       HGP2
   32    31    34	5 ;      CG324      NG3P2       HGP2
   31    32    35	5 ;      NG3P2      CG324     CG2R61
   31    32    68	5 ;      NG3P2      CG324       HGA2
   31    32    69	5 ;      NG3P2      CG324       HGA2
   35    32    68	5 ;     CG2R61      CG324       HGA2
   35    32    69	5 ;     CG2R61      CG324       HGA2
   68    32    69	5 ;       HGA2      CG324       HGA2
   32    35    37	5 ;      CG324     CG2R61     CG2R61
   32    35    36	5 ;      CG324     CG2R61     CG2R61
   37    35    36	5 ;     CG2R61     CG2R61     CG2R61
   35    36    38	5 ;     CG2R61     CG2R61      CG321
   35    36    39	5 ;     CG2R61     CG2R61     CG2R61
   38    36    39	5 ;      CG321     CG2R61     CG2R61
   35    37    41	5 ;     CG2R61     CG2R61     CG2R61
   35    37    70	5 ;     CG2R61     CG2R61      HGR61
   41    37    70	5 ;     CG2R61     CG2R61      HGR61
   30    38    36	5 ;      CG314      CG321     CG2R61
   30    38    71	5 ;      CG314      CG321       HGA2
   30    38    72	5 ;      CG314      CG321       HGA2
   36    38    71	5 ;     CG2R61      CG321       HGA2
   36    38    72	5 ;     CG2R61      CG321       HGA2
   71    38    72	5 ;       HGA2      CG321       HGA2
   36    39    40	5 ;     CG2R61     CG2R61     CG2R61
   36    39    73	5 ;     CG2R61     CG2R61      HGR61
   40    39    73	5 ;     CG2R61     CG2R61      HGR61
   41    40    39	5 ;     CG2R61     CG2R61     CG2R61
   41    40    74	5 ;     CG2R61     CG2R61      HGR61
   39    40    74	5 ;     CG2R61     CG2R61      HGR61
   37    41    40	5 ;     CG2R61     CG2R61     CG2R61
   37    41    75	5 ;     CG2R61     CG2R61      HGR61
   40    41    75	5 ;     CG2R61     CG2R61      HGR61

[ dihedrals ]
;	ai	  aj	ak	  al funct			  c0			c1			  c2			c3			  c4			c5
   27     1    11    12	 9 ;      CG311      CG311      NG2S1      CG2O1
   27     1    11    14	 9 ;      CG311      CG311      NG2S1       HGP1
    2     1    11    12	 9 ;      CG321      CG311      NG2S1      CG2O1
    2     1    11    14	 9 ;      CG321      CG311      NG2S1       HGP1
   42     1    11    12	 9 ;       HGA1      CG311      NG2S1      CG2O1
   42     1    11    14	 9 ;       HGA1      CG311      NG2S1       HGP1
   11     1    27    28	 9 ;      NG2S1      CG311      CG311      OG311
   11     1    27    30	 9 ;      NG2S1      CG311      CG311      CG314
   11     1    27    66	 9 ;      NG2S1      CG311      CG311       HGA1
    2     1    27    28	 9 ;      CG321      CG311      CG311      OG311
    2     1    27    30	 9 ;      CG321      CG311      CG311      CG314
    2     1    27    66	 9 ;      CG321      CG311      CG311       HGA1
   42     1    27    28	 9 ;       HGA1      CG311      CG311      OG311
   42     1    27    30	 9 ;       HGA1      CG311      CG311      CG314
   42     1    27    66	 9 ;       HGA1      CG311      CG311       HGA1
   11     1     2     3	 9 ;      NG2S1      CG311      CG321     CG2R61
   11     1     2    43	 9 ;      NG2S1      CG311      CG321       HGA2
   11     1     2    44	 9 ;      NG2S1      CG311      CG321       HGA2
   27     1     2     3	 9 ;      CG311      CG311      CG321     CG2R61
   27     1     2    43	 9 ;      CG311      CG311      CG321       HGA2
   27     1     2    44	 9 ;      CG311      CG311      CG321       HGA2
   42     1     2     3	 9 ;       HGA1      CG311      CG321     CG2R61
   42     1     2    43	 9 ;       HGA1      CG311      CG321       HGA2
   42     1     2    44	 9 ;       HGA1      CG311      CG321       HGA2
    1     2     3     9	 9 ;      CG311      CG321     CG2R61     CG2R61
    1     2     3     4	 9 ;      CG311      CG321     CG2R61     CG2R61
   43     2     3     9	 9 ;       HGA2      CG321     CG2R61     CG2R61
   43     2     3     4	 9 ;       HGA2      CG321     CG2R61     CG2R61
   44     2     3     9	 9 ;       HGA2      CG321     CG2R61     CG2R61
   44     2     3     4	 9 ;       HGA2      CG321     CG2R61     CG2R61
    2     3     9     8	 9 ;      CG321     CG2R61     CG2R61     CG2R66
    2     3     9    47	 9 ;      CG321     CG2R61     CG2R61      HGR62
    4     3     9     8	 9 ;     CG2R61     CG2R61     CG2R61     CG2R66
    4     3     9    47	 9 ;     CG2R61     CG2R61     CG2R61      HGR62
    9     3     4     5	 9 ;     CG2R61     CG2R61     CG2R61     CG2R66
    9     3     4    45	 9 ;     CG2R61     CG2R61     CG2R61      HGR62
    2     3     4     5	 9 ;      CG321     CG2R61     CG2R61     CG2R66
    2     3     4    45	 9 ;      CG321     CG2R61     CG2R61      HGR62
    3     4     5     7	 9 ;     CG2R61     CG2R61     CG2R66     CG2R61
    3     4     5     6	 9 ;     CG2R61     CG2R61     CG2R66       FGR1
   45     4     5     7	 9 ;      HGR62     CG2R61     CG2R66     CG2R61
   45     4     5     6	 9 ;      HGR62     CG2R61     CG2R66       FGR1
    4     5     7     8	 9 ;     CG2R61     CG2R66     CG2R61     CG2R66
    4     5     7    46	 9 ;     CG2R61     CG2R66     CG2R61      HGR62
    6     5     7     8	 9 ;       FGR1     CG2R66     CG2R61     CG2R66
    6     5     7    46	 9 ;       FGR1     CG2R66     CG2R61      HGR62
    5     7     8    10	 9 ;     CG2R66     CG2R61     CG2R66       FGR1
    5     7     8     9	 9 ;     CG2R66     CG2R61     CG2R66     CG2R61
   46     7     8    10	 9 ;      HGR62     CG2R61     CG2R66       FGR1
   46     7     8     9	 9 ;      HGR62     CG2R61     CG2R66     CG2R61
   10     8     9     3	 9 ;       FGR1     CG2R66     CG2R61     CG2R61
   10     8     9    47	 9 ;       FGR1     CG2R66     CG2R61      HGR62
    7     8     9     3	 9 ;     CG2R61     CG2R66     CG2R61     CG2R61
    7     8     9    47	 9 ;     CG2R61     CG2R66     CG2R61      HGR62
   14    11    12    13	 9 ;       HGP1      NG2S1      CG2O1      OG2D1
   14    11    12    15	 9 ;       HGP1      NG2S1      CG2O1      CG311
    1    11    12    13	 9 ;      CG311      NG2S1      CG2O1      OG2D1
    1    11    12    15	 9 ;      CG311      NG2S1      CG2O1      CG311
   13    12    15    16	 9 ;      OG2D1      CG2O1      CG311      CG331
   13    12    15    17	 9 ;      OG2D1      CG2O1      CG311     NG2R53
   13    12    15    48	 9 ;      OG2D1      CG2O1      CG311       HGA1
   11    12    15    16	 9 ;      NG2S1      CG2O1      CG311      CG331
   11    12    15    17	 9 ;      NG2S1      CG2O1      CG311     NG2R53
   11    12    15    48	 9 ;      NG2S1      CG2O1      CG311       HGA1
   12    15    16    49	 9 ;      CG2O1      CG311      CG331       HGA3
   12    15    16    50	 9 ;      CG2O1      CG311      CG331       HGA3
   12    15    16    51	 9 ;      CG2O1      CG311      CG331       HGA3
   17    15    16    49	 9 ;     NG2R53      CG311      CG331       HGA3
   17    15    16    50	 9 ;     NG2R53      CG311      CG331       HGA3
   17    15    16    51	 9 ;     NG2R53      CG311      CG331       HGA3
   48    15    16    49	 9 ;       HGA1      CG311      CG331       HGA3
   48    15    16    50	 9 ;       HGA1      CG311      CG331       HGA3
   48    15    16    51	 9 ;       HGA1      CG311      CG331       HGA3
   16    15    17    18	 9 ;      CG331      CG311     NG2R53     CG3C52
   16    15    17    21	 9 ;      CG331      CG311     NG2R53     CG2R53
   12    15    17    18	 9 ;      CG2O1      CG311     NG2R53     CG3C52
   12    15    17    21	 9 ;      CG2O1      CG311     NG2R53     CG2R53
   48    15    17    18	 9 ;       HGA1      CG311     NG2R53     CG3C52
   48    15    17    21	 9 ;       HGA1      CG311     NG2R53     CG2R53
   15    17    18    19	 9 ;      CG311     NG2R53     CG3C52     CG3C52
   15    17    18    52	 9 ;      CG311     NG2R53     CG3C52       HGA2
   15    17    18    53	 9 ;      CG311     NG2R53     CG3C52       HGA2
   21    17    18    19	 9 ;     CG2R53     NG2R53     CG3C52     CG3C52
   21    17    18    52	 9 ;     CG2R53     NG2R53     CG3C52       HGA2
   21    17    18    53	 9 ;     CG2R53     NG2R53     CG3C52       HGA2
   15    17    21    22	 9 ;      CG311     NG2R53     CG2R53      OG2D1
   15    17    21    20	 9 ;      CG311     NG2R53     CG2R53     CG3C51
   18    17    21    22	 9 ;     CG3C52     NG2R53     CG2R53      OG2D1
   18    17    21    20	 9 ;     CG3C52     NG2R53     CG2R53     CG3C51
   17    18    19    20	 9 ;     NG2R53     CG3C52     CG3C52     CG3C51
   17    18    19    54	 9 ;     NG2R53     CG3C52     CG3C52       HGA2
   17    18    19    55	 9 ;     NG2R53     CG3C52     CG3C52       HGA2
   52    18    19    20	 9 ;       HGA2     CG3C52     CG3C52     CG3C51
   52    18    19    54	 9 ;       HGA2     CG3C52     CG3C52       HGA2
   52    18    19    55	 9 ;       HGA2     CG3C52     CG3C52       HGA2
   53    18    19    20	 9 ;       HGA2     CG3C52     CG3C52     CG3C51
   53    18    19    54	 9 ;       HGA2     CG3C52     CG3C52       HGA2
   53    18    19    55	 9 ;       HGA2     CG3C52     CG3C52       HGA2
   18    19    20    21	 9 ;     CG3C52     CG3C52     CG3C51     CG2R53
   18    19    20    23	 9 ;     CG3C52     CG3C52     CG3C51      CG321
   18    19    20    56	 9 ;     CG3C52     CG3C52     CG3C51       HGA1
   54    19    20    21	 9 ;       HGA2     CG3C52     CG3C51     CG2R53
   54    19    20    23	 9 ;       HGA2     CG3C52     CG3C51      CG321
   54    19    20    56	 9 ;       HGA2     CG3C52     CG3C51       HGA1
   55    19    20    21	 9 ;       HGA2     CG3C52     CG3C51     CG2R53
   55    19    20    23	 9 ;       HGA2     CG3C52     CG3C51      CG321
   55    19    20    56	 9 ;       HGA2     CG3C52     CG3C51       HGA1
   19    20    21    17	 9 ;     CG3C52     CG3C51     CG2R53     NG2R53
   19    20    21    22	 9 ;     CG3C52     CG3C51     CG2R53      OG2D1
   23    20    21    17	 9 ;      CG321     CG3C51     CG2R53     NG2R53
   23    20    21    22	 9 ;      CG321     CG3C51     CG2R53      OG2D1
   56    20    21    17	 9 ;       HGA1     CG3C51     CG2R53     NG2R53
   56    20    21    22	 9 ;       HGA1     CG3C51     CG2R53      OG2D1
   19    20    23    24	 9 ;     CG3C52     CG3C51      CG321      CG321
   19    20    23    57	 9 ;     CG3C52     CG3C51      CG321       HGA2
   19    20    23    58	 9 ;     CG3C52     CG3C51      CG321       HGA2
   21    20    23    24	 9 ;     CG2R53     CG3C51      CG321      CG321
   21    20    23    57	 9 ;     CG2R53     CG3C51      CG321       HGA2
   21    20    23    58	 9 ;     CG2R53     CG3C51      CG321       HGA2
   56    20    23    24	 9 ;       HGA1     CG3C51      CG321      CG321
   56    20    23    57	 9 ;       HGA1     CG3C51      CG321       HGA2
   56    20    23    58	 9 ;       HGA1     CG3C51      CG321       HGA2
   20    23    24    25	 9 ;     CG3C51      CG321      CG321      CG321
   20    23    24    59	 9 ;     CG3C51      CG321      CG321       HGA2
   20    23    24    60	 9 ;     CG3C51      CG321      CG321       HGA2
   57    23    24    25	 9 ;       HGA2      CG321      CG321      CG321
   57    23    24    59	 9 ;       HGA2      CG321      CG321       HGA2
   57    23    24    60	 9 ;       HGA2      CG321      CG321       HGA2
   58    23    24    25	 9 ;       HGA2      CG321      CG321      CG321
   58    23    24    59	 9 ;       HGA2      CG321      CG321       HGA2
   58    23    24    60	 9 ;       HGA2      CG321      CG321       HGA2
   23    24    25    26	 9 ;      CG321      CG321      CG321      CG331
   23    24    25    61	 9 ;      CG321      CG321      CG321       HGA2
   23    24    25    62	 9 ;      CG321      CG321      CG321       HGA2
   59    24    25    26	 9 ;       HGA2      CG321      CG321      CG331
   59    24    25    61	 9 ;       HGA2      CG321      CG321       HGA2
   59    24    25    62	 9 ;       HGA2      CG321      CG321       HGA2
   60    24    25    26	 9 ;       HGA2      CG321      CG321      CG331
   60    24    25    61	 9 ;       HGA2      CG321      CG321       HGA2
   60    24    25    62	 9 ;       HGA2      CG321      CG321       HGA2
   24    25    26    63	 9 ;      CG321      CG321      CG331       HGA3
   24    25    26    64	 9 ;      CG321      CG321      CG331       HGA3
   24    25    26    65	 9 ;      CG321      CG321      CG331       HGA3
   61    25    26    63	 9 ;       HGA2      CG321      CG331       HGA3
   61    25    26    64	 9 ;       HGA2      CG321      CG331       HGA3
   61    25    26    65	 9 ;       HGA2      CG321      CG331       HGA3
   62    25    26    63	 9 ;       HGA2      CG321      CG331       HGA3
   62    25    26    64	 9 ;       HGA2      CG321      CG331       HGA3
   62    25    26    65	 9 ;       HGA2      CG321      CG331       HGA3
    1    27    28    29	 9 ;      CG311      CG311      OG311       HGP1
   30    27    28    29	 9 ;      CG314      CG311      OG311       HGP1
   66    27    28    29	 9 ;       HGA1      CG311      OG311       HGP1
   28    27    30    31	 9 ;      OG311      CG311      CG314      NG3P2
   28    27    30    38	 9 ;      OG311      CG311      CG314      CG321
   28    27    30    67	 9 ;      OG311      CG311      CG314       HGA1
    1    27    30    31	 9 ;      CG311      CG311      CG314      NG3P2
    1    27    30    38	 9 ;      CG311      CG311      CG314      CG321
    1    27    30    67	 9 ;      CG311      CG311      CG314       HGA1
   66    27    30    31	 9 ;       HGA1      CG311      CG314      NG3P2
   66    27    30    38	 9 ;       HGA1      CG311      CG314      CG321
   66    27    30    67	 9 ;       HGA1      CG311      CG314       HGA1
   27    30    31    33	 9 ;      CG311      CG314      NG3P2       HGP2
   27    30    31    32	 9 ;      CG311      CG314      NG3P2      CG324
   27    30    31    34	 9 ;      CG311      CG314      NG3P2       HGP2
   38    30    31    33	 9 ;      CG321      CG314      NG3P2       HGP2
   38    30    31    32	 9 ;      CG321      CG314      NG3P2      CG324
   38    30    31    34	 9 ;      CG321      CG314      NG3P2       HGP2
   67    30    31    33	 9 ;       HGA1      CG314      NG3P2       HGP2
   67    30    31    32	 9 ;       HGA1      CG314      NG3P2      CG324
   67    30    31    34	 9 ;       HGA1      CG314      NG3P2       HGP2
   27    30    38    36	 9 ;      CG311      CG314      CG321     CG2R61
   27    30    38    71	 9 ;      CG311      CG314      CG321       HGA2
   27    30    38    72	 9 ;      CG311      CG314      CG321       HGA2
   31    30    38    36	 9 ;      NG3P2      CG314      CG321     CG2R61
   31    30    38    71	 9 ;      NG3P2      CG314      CG321       HGA2
   31    30    38    72	 9 ;      NG3P2      CG314      CG321       HGA2
   67    30    38    36	 9 ;       HGA1      CG314      CG321     CG2R61
   67    30    38    71	 9 ;       HGA1      CG314      CG321       HGA2
   67    30    38    72	 9 ;       HGA1      CG314      CG321       HGA2
   33    31    32    35	 9 ;       HGP2      NG3P2      CG324     CG2R61
   33    31    32    68	 9 ;       HGP2      NG3P2      CG324       HGA2
   33    31    32    69	 9 ;       HGP2      NG3P2      CG324       HGA2
   30    31    32    35	 9 ;      CG314      NG3P2      CG324     CG2R61
   30    31    32    68	 9 ;      CG314      NG3P2      CG324       HGA2
   30    31    32    69	 9 ;      CG314      NG3P2      CG324       HGA2
   34    31    32    35	 9 ;       HGP2      NG3P2      CG324     CG2R61
   34    31    32    68	 9 ;       HGP2      NG3P2      CG324       HGA2
   34    31    32    69	 9 ;       HGP2      NG3P2      CG324       HGA2
   31    32    35    37	 9 ;      NG3P2      CG324     CG2R61     CG2R61
   31    32    35    36	 9 ;      NG3P2      CG324     CG2R61     CG2R61
   68    32    35    37	 9 ;       HGA2      CG324     CG2R61     CG2R61
   68    32    35    36	 9 ;       HGA2      CG324     CG2R61     CG2R61
   69    32    35    37	 9 ;       HGA2      CG324     CG2R61     CG2R61
   69    32    35    36	 9 ;       HGA2      CG324     CG2R61     CG2R61
   32    35    37    41	 9 ;      CG324     CG2R61     CG2R61     CG2R61
   32    35    37    70	 9 ;      CG324     CG2R61     CG2R61      HGR61
   36    35    37    41	 9 ;     CG2R61     CG2R61     CG2R61     CG2R61
   36    35    37    70	 9 ;     CG2R61     CG2R61     CG2R61      HGR61
   32    35    36    38	 9 ;      CG324     CG2R61     CG2R61      CG321
   32    35    36    39	 9 ;      CG324     CG2R61     CG2R61     CG2R61
   37    35    36    38	 9 ;     CG2R61     CG2R61     CG2R61      CG321
   37    35    36    39	 9 ;     CG2R61     CG2R61     CG2R61     CG2R61
   35    36    38    30	 9 ;     CG2R61     CG2R61      CG321      CG314
   35    36    38    71	 9 ;     CG2R61     CG2R61      CG321       HGA2
   35    36    38    72	 9 ;     CG2R61     CG2R61      CG321       HGA2
   39    36    38    30	 9 ;     CG2R61     CG2R61      CG321      CG314
   39    36    38    71	 9 ;     CG2R61     CG2R61      CG321       HGA2
   39    36    38    72	 9 ;     CG2R61     CG2R61      CG321       HGA2
   35    36    39    40	 9 ;     CG2R61     CG2R61     CG2R61     CG2R61
   35    36    39    73	 9 ;     CG2R61     CG2R61     CG2R61      HGR61
   38    36    39    40	 9 ;      CG321     CG2R61     CG2R61     CG2R61
   38    36    39    73	 9 ;      CG321     CG2R61     CG2R61      HGR61
   35    37    41    40	 9 ;     CG2R61     CG2R61     CG2R61     CG2R61
   35    37    41    75	 9 ;     CG2R61     CG2R61     CG2R61      HGR61
   70    37    41    40	 9 ;      HGR61     CG2R61     CG2R61     CG2R61
   70    37    41    75	 9 ;      HGR61     CG2R61     CG2R61      HGR61
   36    39    40    41	 9 ;     CG2R61     CG2R61     CG2R61     CG2R61
   36    39    40    74	 9 ;     CG2R61     CG2R61     CG2R61      HGR61
   73    39    40    41	 9 ;      HGR61     CG2R61     CG2R61     CG2R61
   73    39    40    74	 9 ;      HGR61     CG2R61     CG2R61      HGR61
   39    40    41    37	 9 ;     CG2R61     CG2R61     CG2R61     CG2R61
   39    40    41    75	 9 ;     CG2R61     CG2R61     CG2R61      HGR61
   74    40    41    37	 9 ;      HGR61     CG2R61     CG2R61     CG2R61
   74    40    41    75	 9 ;      HGR61     CG2R61     CG2R61      HGR61

[ dihedrals ]
;	ai	  aj	ak	  al funct			  c0			c1			  c2			c3
   12    15    11    13	 2
   21    20    17    22	 2

