GROwing Monsters And Cloning Shrimps
   75
    1LIG     C1    1  -1.251   0.447  -1.549
    1LIG     C2    2  -1.217   0.358  -1.427
    1LIG     C3    3  -1.135   0.234  -1.455
    1LIG     C4    4  -1.189   0.115  -1.508
    1LIG     C5    5  -1.111  -0.000  -1.518
    1LIG     F1    6  -1.169  -0.114  -1.559
    1LIG     C6    7  -0.978  -0.000  -1.481
    1LIG     C7    8  -0.924   0.115  -1.427
    1LIG     C8    9  -1.000   0.232  -1.415
    1LIG     F2   10  -0.798   0.113  -1.381
    1LIG     N1   11  -1.149   0.452  -1.658
    1LIG     C9   12  -1.118   0.544  -1.755
    1LIG     O1   13  -1.087   0.492  -1.863
    1LIG     H1   14  -1.144   0.364  -1.709
    1LIG    C10   15  -1.108   0.698  -1.731
    1LIG    C11   16  -1.023   0.768  -1.836
    1LIG     N2   17  -1.234   0.769  -1.707
    1LIG    C12   18  -1.342   0.778  -1.802
    1LIG    C13   19  -1.432   0.884  -1.740
    1LIG    C14   20  -1.417   0.860  -1.589
    1LIG    C15   21  -1.270   0.819  -1.582
    1LIG     O2   22  -1.200   0.824  -1.482
    1LIG    C16   23  -1.511   0.748  -1.542
    1LIG    C17   24  -1.624   0.794  -1.451
    1LIG    C18   25  -1.740   0.863  -1.520
    1LIG    C19   26  -1.786   0.984  -1.441
    1LIG    C20   27  -1.392   0.422  -1.614
    1LIG     O3   28  -1.381   0.395  -1.755
    1LIG     H2   29  -1.461   0.343  -1.780
    1LIG    C21   30  -1.475   0.307  -1.552
    1LIG     N3   31  -1.567   0.246  -1.655
    1LIG    C22   32  -1.680   0.333  -1.699
    1LIG     H3   33  -1.510   0.219  -1.737
    1LIG     H4   34  -1.608   0.159  -1.617
    1LIG    C23   35  -1.746   0.406  -1.586
    1LIG    C24   36  -1.686   0.413  -1.458
    1LIG    C25   37  -1.869   0.469  -1.608
    1LIG    C26   38  -1.556   0.343  -1.427
    1LIG    C27   39  -1.754   0.479  -1.355
    1LIG    C28   40  -1.877   0.540  -1.377
    1LIG    C29   41  -1.934   0.535  -1.504
    1LIG     HC   42  -1.255   0.549  -1.510
    1LIG    HC2   43  -1.162   0.420  -1.355
    1LIG    HC3   44  -1.311   0.327  -1.380
    1LIG    HC1   45  -1.291   0.113  -1.541
    1LIG    HC4   46  -0.917  -0.088  -1.495
    1LIG    HC5   47  -0.955   0.321  -1.373
    1LIG    HC6   48  -1.052   0.708  -1.638
    1LIG    HC7   49  -1.020   0.875  -1.814
    1LIG    HC8   50  -0.922   0.727  -1.834
    1LIG    HC9   51  -1.067   0.752  -1.934
    1LIG   HC10   52  -1.306   0.810  -1.900
    1LIG   HC11   53  -1.395   0.683  -1.809
    1LIG   HC12   54  -1.398   0.984  -1.767
    1LIG   HC13   55  -1.535   0.869  -1.771
    1LIG   HC14   56  -1.435   0.952  -1.533
    1LIG   HC15   57  -1.451   0.674  -1.488
    1LIG   HC16   58  -1.554   0.699  -1.630
    1LIG   HC17   59  -1.663   0.706  -1.399
    1LIG   HC18   60  -1.583   0.862  -1.377
    1LIG   HC19   61  -1.823   0.793  -1.530
    1LIG   HC20   62  -1.709   0.895  -1.620
    1LIG   HC21   63  -1.870   1.032  -1.492
    1LIG   HC22   64  -1.819   0.952  -1.341
    1LIG   HC23   65  -1.704   1.054  -1.431
    1LIG   HC24   66  -1.449   0.514  -1.603
    1LIG   HC25   67  -1.404   0.229  -1.522
    1LIG   HC26   68  -1.754   0.271  -1.749
    1LIG   HC27   69  -1.642   0.406  -1.771
    1LIG   HC28   70  -1.914   0.466  -1.706
    1LIG   HC29   71  -1.578   0.252  -1.372
    1LIG   HC30   72  -1.496   0.408  -1.364
    1LIG   HC31   73  -1.709   0.484  -1.257
    1LIG   HC32   74  -1.928   0.590  -1.296
    1LIG   HC33   75  -2.029   0.584  -1.522
   0.00000   0.00000   0.00000
