Green Red Orange Magenta Azure Cyan Skyblue
   82
    1LIG      F    1  -1.418  -0.030  -1.617
    1LIG     C1    2  -1.359   0.060  -1.537
    1LIG     C2    3  -1.378   0.197  -1.563
    1LIG     C3    4  -1.305   0.290  -1.488
    1LIG     C4    5  -1.224   0.248  -1.383
    1LIG     C5    6  -1.211   0.112  -1.354
    1LIG     C6    7  -1.277   0.017  -1.432
    1LIG     C7    8  -1.257  -0.121  -1.406
    1LIG     C8    9  -1.240  -0.238  -1.388
    1LIG     C9   10  -1.467   0.242  -1.676
    1LIG    C10   11  -1.399   0.315  -1.796
    1LIG     N1   12  -1.354   0.225  -1.906
    1LIG    C11   13  -1.232   0.228  -1.972
    1LIG     O1   14  -1.146   0.312  -1.945
    1LIG     H1   15  -1.422   0.163  -1.951
    1LIG    C12   16  -1.209   0.113  -2.075
    1LIG     O2   17  -1.265   0.135  -2.204
    1LIG    C13   18  -1.193   0.235  -2.278
    1LIG    C14   19  -1.493   0.431  -1.847
    1LIG    C15   20  -1.429   0.571  -1.872
    1LIG     N2   21  -1.330   0.594  -1.757
    1LIG     H2   22  -1.332   0.504  -1.705
    1LIG     H3   23  -1.235   0.598  -1.796
    1LIG    C16   24  -1.345   0.706  -1.653
    1LIG    C17   25  -1.319   0.851  -1.716
    1LIG    C18   26  -1.419   0.957  -1.661
    1LIG     O3   27  -1.439   0.923  -1.524
    1LIG    C19   28  -1.417   1.114  -1.661
    1LIG    C20   29  -1.544   0.967  -1.755
    1LIG    C21   30  -1.514   0.813  -1.510
    1LIG     N3   31  -1.627   0.834  -1.444
    1LIG    C22   32  -1.466   0.694  -1.563
    1LIG    C23   33  -1.695   0.725  -1.412
    1LIG     HN   34  -1.659   0.928  -1.420
    1LIG    C24   35  -1.646   0.597  -1.434
    1LIG    C25   36  -1.530   0.580  -1.513
    1LIG    C26   37  -1.535   1.119  -1.758
    1LIG    C27   38  -1.719   0.487  -1.365
    1LIG    C28   39  -1.833   0.421  -1.445
    1LIG    C29   40  -1.780   0.298  -1.520
    1LIG    C30   41  -1.939   0.378  -1.342
    1LIG    C31   42  -1.900   0.516  -1.546
    1LIG     O4   43  -1.556   0.399  -1.974
    1LIG     H4   44  -1.618   0.325  -1.959
    1LIG     HC   45  -1.312   0.395  -1.512
    1LIG    HC1   46  -1.170   0.321  -1.323
    1LIG    HC2   47  -1.150   0.080  -1.270
    1LIG    HC3   48  -1.224  -0.342  -1.372
    1LIG    HC4   49  -1.541   0.310  -1.635
    1LIG    HC5   50  -1.519   0.155  -1.715
    1LIG    HC6   51  -1.309   0.363  -1.757
    1LIG    HC7   52  -1.101   0.100  -2.087
    1LIG    HC8   53  -1.250   0.021  -2.034
    1LIG    HC9   54  -1.573   0.443  -1.774
    1LIG   HC10   55  -1.506   0.649  -1.871
    1LIG   HC11   56  -1.376   0.572  -1.967
    1LIG   HC12   57  -1.261   0.690  -1.586
    1LIG   HC13   58  -1.217   0.882  -1.691
    1LIG   HC14   59  -1.329   0.845  -1.824
    1LIG   HC15   60  -1.439   1.159  -1.564
    1LIG   HC16   61  -1.326   1.154  -1.705
    1LIG   HC17   62  -1.530   0.920  -1.853
    1LIG   HC18   63  -1.636   0.933  -1.706
    1LIG   HC19   64  -1.792   0.737  -1.367
    1LIG   HC20   65  -1.491   0.482  -1.534
    1LIG   HC21   66  -1.622   1.170  -1.719
    1LIG   HC22   67  -1.506   1.157  -1.856
    1LIG   HC23   68  -1.647   0.409  -1.340
    1LIG   HC24   69  -1.761   0.526  -1.273
    1LIG   HC25   70  -1.240   0.249  -2.376
    1LIG   HC26   71  -1.196   0.329  -2.223
    1LIG   HC27   72  -1.090   0.204  -2.291
    1LIG   HC28   73  -1.827   0.548  -1.620
    1LIG   HC29   74  -1.982   0.464  -1.596
    1LIG   HC30   75  -1.939   0.603  -1.494
    1LIG   HC31   76  -2.023   0.330  -1.394
    1LIG   HC32   77  -1.976   0.465  -1.289
    1LIG   HC33   78  -1.895   0.307  -1.272
    1LIG   HC34   79  -1.732   0.230  -1.449
    1LIG   HC35   80  -1.862   0.247  -1.570
    1LIG   HC36   81  -1.706   0.329  -1.594
    1LIG    H43   82  -1.564   0.835  -1.604
   0.00000   0.00000   0.00000
