; Created by cgenff_charmm2gmx.py

[ moleculetype ]
; Name			   nrexcl
LIG				 3

[ atoms ]
;	 nr		  type	resnr residue  atom   cgnr	   charge		mass  typeB    chargeB		massB
; residue	 1 LIG rtp LIG q	qsum
     1       FGR1      1    LIG      F      1     -0.095     18.998   ;
     2     CG2R66      1    LIG     C1      2     -0.130     12.011   ;
     3     CG2R61      1    LIG     C2      3      0.139     12.011   ;
     4     CG2R61      1    LIG     C3      4     -0.155     12.011   ;
     5     CG2R61      1    LIG     C4      5     -0.088     12.011   ;
     6     CG2R61      1    LIG     C5      6     -0.150     12.011   ;
     7     CG2R61      1    LIG     C6      7      0.227     12.011   ;
     8      CG1T1      1    LIG     C7      8     -0.007     12.011   ;
     9      CG1T2      1    LIG     C8      9     -0.410     12.011   ;
    10      CG321      1    LIG     C9     10     -0.108     12.011   ;
    11      CG311      1    LIG    C10     11     -0.002     12.011   ;
    12      NG2S1      1    LIG     N1     12     -0.388     14.007   ;
    13      CG2O1      1    LIG    C11     13      0.541     12.011   ;
    14      OG2D1      1    LIG     O1     14     -0.453     15.999   ;
    15       HGP1      1    LIG     H1     15      0.281      1.008   ;
    16      CG321      1    LIG    C12     16      0.138     12.011   ;
    17      OG301      1    LIG     O2     17     -0.578     15.999   ;
    18      CG331      1    LIG    C13     18     -0.093     12.011   ;
    19      CG311      1    LIG    C14     19      0.089     12.011   ;
    20      CG324      1    LIG    C15     20      0.191     12.011   ;
    21      NG3P2      1    LIG     N2     21     -0.445     14.007   ;
    22       HGP2      1    LIG     H2     22      0.339      1.008   ;
    23       HGP2      1    LIG     H3     23      0.339      1.008   ;
    24      CG314      1    LIG    C16     24      0.361     12.011   ;
    25      CG321      1    LIG    C17     25     -0.254     12.011   ;
    26     CG3C41      1    LIG    C18     26      0.278     12.011   ;
    27     OG3C61      1    LIG     O3     27     -0.389     15.999   ;
    28     CG3C41      1    LIG    C19     28     -0.203     12.011   ;
    29     CG3C41      1    LIG    C20     29     -0.203     12.011   ;
    30      CG311      1    LIG    C21     30      0.450     12.011   ;
    31      NG311      1    LIG     N3     31     -0.567     14.007   ;
    32     CG2DC1      1    LIG    C22     32     -0.330     12.011   ;
    33     CG2D2O      1    LIG    C23     33     -0.109     12.011   ;
    34     HGPAM1      1    LIG     HN     34      0.368      1.008   ;
    35     CG2DC2      1    LIG    C24     35      0.091     12.011   ;
    36     CG2DC1      1    LIG    C25     36     -0.108     12.011   ;
    37     CG3C41      1    LIG    C26     37     -0.168     12.011   ;
    38      CG321      1    LIG    C27     38     -0.131     12.011   ;
    39      CG301      1    LIG    C28     39     -0.287     12.011   ;
    40      CG331      1    LIG    C29     40     -0.197     12.011   ;
    41      CG331      1    LIG    C30     41     -0.197     12.011   ;
    42      CG331      1    LIG    C31     42     -0.197     12.011   ;
    43      OG311      1    LIG     O4     43     -0.625     15.999   ;
    44       HGP1      1    LIG     H4     44      0.415      1.008   ;
    45      HGR61      1    LIG     HC     45      0.116      1.008   ;
    46      HGR61      1    LIG    HC1     46      0.116      1.008   ;
    47      HGR61      1    LIG    HC2     47      0.116      1.008   ;
    48     HGPAM1      1    LIG    HC3     48      0.291      1.008   ;
    49       HGA2      1    LIG    HC4     49      0.090      1.008   ;
    50       HGA2      1    LIG    HC5     50      0.090      1.008   ;
    51       HGA1      1    LIG    HC6     51      0.090      1.008   ;
    52       HGA2      1    LIG    HC7     52      0.090      1.008   ;
    53       HGA2      1    LIG    HC8     53      0.090      1.008   ;
    54       HGA1      1    LIG    HC9     54      0.090      1.008   ;
    55       HGA2      1    LIG   HC10     55      0.090      1.008   ;
    56       HGA2      1    LIG   HC11     56      0.090      1.008   ;
    57       HGA1      1    LIG   HC12     57      0.090      1.008   ;
    58       HGA2      1    LIG   HC13     58      0.090      1.008   ;
    59       HGA2      1    LIG   HC14     59      0.090      1.008   ;
    60       HGA2      1    LIG   HC15     60      0.090      1.008   ;
    61       HGA2      1    LIG   HC16     61      0.090      1.008   ;
    62       HGA2      1    LIG   HC17     62      0.090      1.008   ;
    63       HGA2      1    LIG   HC18     63      0.090      1.008   ;
    64       HGA4      1    LIG   HC19     64      0.158      1.008   ;
    65       HGA4      1    LIG   HC20     65      0.143      1.008   ;
    66       HGA2      1    LIG   HC21     66      0.090      1.008   ;
    67       HGA2      1    LIG   HC22     67      0.090      1.008   ;
    68       HGA2      1    LIG   HC23     68      0.090      1.008   ;
    69       HGA2      1    LIG   HC24     69      0.090      1.008   ;
    70       HGA3      1    LIG   HC25     70      0.090      1.008   ;
    71       HGA3      1    LIG   HC26     71      0.090      1.008   ;
    72       HGA3      1    LIG   HC27     72      0.090      1.008   ;
    73       HGA3      1    LIG   HC28     73      0.090      1.008   ;
    74       HGA3      1    LIG   HC29     74      0.090      1.008   ;
    75       HGA3      1    LIG   HC30     75      0.090      1.008   ;
    76       HGA3      1    LIG   HC31     76      0.090      1.008   ;
    77       HGA3      1    LIG   HC32     77      0.090      1.008   ;
    78       HGA3      1    LIG   HC33     78      0.090      1.008   ;
    79       HGA3      1    LIG   HC34     79      0.090      1.008   ;
    80       HGA3      1    LIG   HC35     80      0.090      1.008   ;
    81       HGA3      1    LIG   HC36     81      0.090      1.008   ;
    82       HGA1      1    LIG    H43     82      0.090      1.008   ;

[ bonds ]
;	ai	  aj funct			  c0			c1			  c2			c3
    1     2	 1 ;        FGR1     CG2R66
    2     3	 1 ;      CG2R66     CG2R61
    2     7	 1 ;      CG2R66     CG2R61
    3    10	 1 ;      CG2R61      CG321
    3     4	 1 ;      CG2R61     CG2R61
    4     5	 1 ;      CG2R61     CG2R61
    4    45	 1 ;      CG2R61      HGR61
    5     6	 1 ;      CG2R61     CG2R61
    5    46	 1 ;      CG2R61      HGR61
    6     7	 1 ;      CG2R61     CG2R61
    6    47	 1 ;      CG2R61      HGR61
    7     8	 1 ;      CG2R61      CG1T1
    8     9	 1 ;       CG1T1      CG1T2
    9    48	 1 ;       CG1T2     HGPAM1
   10    11	 1 ;       CG321      CG311
   10    49	 1 ;       CG321       HGA2
   10    50	 1 ;       CG321       HGA2
   11    12	 1 ;       CG311      NG2S1
   11    19	 1 ;       CG311      CG311
   11    51	 1 ;       CG311       HGA1
   12    13	 1 ;       NG2S1      CG2O1
   12    15	 1 ;       NG2S1       HGP1
   13    16	 1 ;       CG2O1      CG321
   13    14	 1 ;       CG2O1      OG2D1
   16    17	 1 ;       CG321      OG301
   16    52	 1 ;       CG321       HGA2
   16    53	 1 ;       CG321       HGA2
   17    18	 1 ;       OG301      CG331
   18    70	 1 ;       CG331       HGA3
   18    71	 1 ;       CG331       HGA3
   18    72	 1 ;       CG331       HGA3
   19    43	 1 ;       CG311      OG311
   19    20	 1 ;       CG311      CG324
   19    54	 1 ;       CG311       HGA1
   20    21	 1 ;       CG324      NG3P2
   20    55	 1 ;       CG324       HGA2
   20    56	 1 ;       CG324       HGA2
   21    23	 1 ;       NG3P2       HGP2
   21    22	 1 ;       NG3P2       HGP2
   21    24	 1 ;       NG3P2      CG314
   24    25	 1 ;       CG314      CG321
   24    32	 1 ;       CG314     CG2DC1
   24    57	 1 ;       CG314       HGA1
   25    26	 1 ;       CG321     CG3C41
   25    58	 1 ;       CG321       HGA2
   25    59	 1 ;       CG321       HGA2
   26    29	 1 ;      CG3C41     CG3C41
   26    28	 1 ;      CG3C41     CG3C41
   26    27	 1 ;      CG3C41     OG3C61
   27    30	 1 ;      OG3C61      CG311
   28    37	 1 ;      CG3C41     CG3C41
   28    60	 1 ;      CG3C41       HGA2
   28    61	 1 ;      CG3C41       HGA2
   29    37	 1 ;      CG3C41     CG3C41
   29    62	 1 ;      CG3C41       HGA2
   29    63	 1 ;      CG3C41       HGA2
   30    32	 1 ;       CG311     CG2DC1
   30    31	 1 ;       CG311      NG311
   30    82	 1 ;       CG311       HGA1
   31    34	 1 ;       NG311     HGPAM1
   31    33	 1 ;       NG311     CG2D2O
   32    36	 1 ;      CG2DC1     CG2DC1
   33    35	 1 ;      CG2D2O     CG2DC2
   33    64	 1 ;      CG2D2O       HGA4
   35    36	 1 ;      CG2DC2     CG2DC1
   35    38	 1 ;      CG2DC2      CG321
   36    65	 1 ;      CG2DC1       HGA4
   37    66	 1 ;      CG3C41       HGA2
   37    67	 1 ;      CG3C41       HGA2
   38    39	 1 ;       CG321      CG301
   38    68	 1 ;       CG321       HGA2
   38    69	 1 ;       CG321       HGA2
   39    40	 1 ;       CG301      CG331
   39    42	 1 ;       CG301      CG331
   39    41	 1 ;       CG301      CG331
   40    79	 1 ;       CG331       HGA3
   40    80	 1 ;       CG331       HGA3
   40    81	 1 ;       CG331       HGA3
   41    76	 1 ;       CG331       HGA3
   41    77	 1 ;       CG331       HGA3
   41    78	 1 ;       CG331       HGA3
   42    73	 1 ;       CG331       HGA3
   42    74	 1 ;       CG331       HGA3
   42    75	 1 ;       CG331       HGA3
   43    44	 1 ;       OG311       HGP1

[ pairs ]
;	ai	  aj funct			  c0			c1			  c2			c3
    1    10	 1
    1     4	 1
    1     8	 1
    1     6	 1
    2    11	 1
    2    49	 1
    2    50	 1
    2     5	 1
    2    45	 1
    2    47	 1
    2     9	 1
    3     8	 1
    3     6	 1
    3    46	 1
    3    12	 1
    3    19	 1
    3    51	 1
    4     7	 1
    4    11	 1
    4    49	 1
    4    50	 1
    4    47	 1
    5    10	 1
    5     8	 1
    6    45	 1
    6     9	 1
    7    10	 1
    7    46	 1
    7    48	 1
    8    47	 1
   10    45	 1
   10    13	 1
   10    15	 1
   10    43	 1
   10    20	 1
   10    54	 1
   11    16	 1
   11    14	 1
   11    44	 1
   11    21	 1
   11    55	 1
   11    56	 1
   12    49	 1
   12    50	 1
   12    43	 1
   12    20	 1
   12    54	 1
   12    17	 1
   12    52	 1
   12    53	 1
   13    19	 1
   13    51	 1
   13    18	 1
   14    15	 1
   14    17	 1
   14    52	 1
   14    53	 1
   15    19	 1
   15    51	 1
   15    16	 1
   16    70	 1
   16    71	 1
   16    72	 1
   18    52	 1
   18    53	 1
   19    49	 1
   19    50	 1
   19    23	 1
   19    22	 1
   19    24	 1
   20    51	 1
   20    44	 1
   20    25	 1
   20    32	 1
   20    57	 1
   21    43	 1
   21    54	 1
   21    26	 1
   21    58	 1
   21    59	 1
   21    36	 1
   21    30	 1
   22    55	 1
   22    56	 1
   22    25	 1
   22    32	 1
   22    57	 1
   23    55	 1
   23    56	 1
   23    25	 1
   23    32	 1
   23    57	 1
   24    55	 1
   24    56	 1
   24    29	 1
   24    28	 1
   24    27	 1
   24    31	 1
   24    82	 1
   24    35	 1
   24    65	 1
   25    36	 1
   25    30	 1
   25    37	 1
   25    62	 1
   25    63	 1
   25    60	 1
   25    61	 1
   26    32	 1
   26    57	 1
   26    31	 1
   26    82	 1
   26    66	 1
   26    67	 1
   27    58	 1
   27    59	 1
   27    37	 1
   27    62	 1
   27    63	 1
   27    60	 1
   27    61	 1
   27    36	 1
   27    34	 1
   27    33	 1
   28    58	 1
   28    59	 1
   28    62	 1
   28    63	 1
   28    30	 1
   29    58	 1
   29    59	 1
   29    60	 1
   29    61	 1
   29    30	 1
   30    57	 1
   30    35	 1
   30    64	 1
   30    65	 1
   31    36	 1
   31    38	 1
   32    58	 1
   32    59	 1
   32    34	 1
   32    33	 1
   32    38	 1
   33    82	 1
   33    65	 1
   33    39	 1
   33    68	 1
   33    69	 1
   34    82	 1
   34    35	 1
   34    64	 1
   35    40	 1
   35    42	 1
   35    41	 1
   36    57	 1
   36    82	 1
   36    64	 1
   36    39	 1
   36    68	 1
   36    69	 1
   38    64	 1
   38    65	 1
   38    79	 1
   38    80	 1
   38    81	 1
   38    73	 1
   38    74	 1
   38    75	 1
   38    76	 1
   38    77	 1
   38    78	 1
   40    68	 1
   40    69	 1
   40    73	 1
   40    74	 1
   40    75	 1
   40    76	 1
   40    77	 1
   40    78	 1
   41    68	 1
   41    69	 1
   41    79	 1
   41    80	 1
   41    81	 1
   41    73	 1
   41    74	 1
   41    75	 1
   42    68	 1
   42    69	 1
   42    79	 1
   42    80	 1
   42    81	 1
   42    76	 1
   42    77	 1
   42    78	 1
   43    51	 1
   43    55	 1
   43    56	 1
   44    54	 1
   45    46	 1
   46    47	 1
   49    51	 1
   50    51	 1
   51    54	 1
   54    55	 1
   54    56	 1
   57    58	 1
   57    59	 1
   60    66	 1
   60    67	 1
   61    66	 1
   61    67	 1
   62    66	 1
   62    67	 1
   63    66	 1
   63    67	 1

[ angles ]
;	ai	  aj	ak funct			c0			  c1			c2			  c3
    1     2     3	5 ;       FGR1     CG2R66     CG2R61
    1     2     7	5 ;       FGR1     CG2R66     CG2R61
    3     2     7	5 ;     CG2R61     CG2R66     CG2R61
   10     3     2	5 ;      CG321     CG2R61     CG2R66
   10     3     4	5 ;      CG321     CG2R61     CG2R61
    2     3     4	5 ;     CG2R66     CG2R61     CG2R61
    3     4     5	5 ;     CG2R61     CG2R61     CG2R61
    3     4    45	5 ;     CG2R61     CG2R61      HGR61
    5     4    45	5 ;     CG2R61     CG2R61      HGR61
    4     5     6	5 ;     CG2R61     CG2R61     CG2R61
    4     5    46	5 ;     CG2R61     CG2R61      HGR61
    6     5    46	5 ;     CG2R61     CG2R61      HGR61
    7     6     5	5 ;     CG2R61     CG2R61     CG2R61
    7     6    47	5 ;     CG2R61     CG2R61      HGR61
    5     6    47	5 ;     CG2R61     CG2R61      HGR61
    2     7     8	5 ;     CG2R66     CG2R61      CG1T1
    2     7     6	5 ;     CG2R66     CG2R61     CG2R61
    8     7     6	5 ;      CG1T1     CG2R61     CG2R61
    7     8     9	5 ;     CG2R61      CG1T1      CG1T2
    8     9    48	5 ;      CG1T1      CG1T2     HGPAM1
   11    10     3	5 ;      CG311      CG321     CG2R61
   11    10    49	5 ;      CG311      CG321       HGA2
   11    10    50	5 ;      CG311      CG321       HGA2
    3    10    49	5 ;     CG2R61      CG321       HGA2
    3    10    50	5 ;     CG2R61      CG321       HGA2
   49    10    50	5 ;       HGA2      CG321       HGA2
   12    11    19	5 ;      NG2S1      CG311      CG311
   12    11    10	5 ;      NG2S1      CG311      CG321
   12    11    51	5 ;      NG2S1      CG311       HGA1
   19    11    10	5 ;      CG311      CG311      CG321
   19    11    51	5 ;      CG311      CG311       HGA1
   10    11    51	5 ;      CG321      CG311       HGA1
   13    12    15	5 ;      CG2O1      NG2S1       HGP1
   13    12    11	5 ;      CG2O1      NG2S1      CG311
   15    12    11	5 ;       HGP1      NG2S1      CG311
   16    13    14	5 ;      CG321      CG2O1      OG2D1
   16    13    12	5 ;      CG321      CG2O1      NG2S1
   14    13    12	5 ;      OG2D1      CG2O1      NG2S1
   17    16    13	5 ;      OG301      CG321      CG2O1
   17    16    52	5 ;      OG301      CG321       HGA2
   17    16    53	5 ;      OG301      CG321       HGA2
   13    16    52	5 ;      CG2O1      CG321       HGA2
   13    16    53	5 ;      CG2O1      CG321       HGA2
   52    16    53	5 ;       HGA2      CG321       HGA2
   18    17    16	5 ;      CG331      OG301      CG321
   17    18    70	5 ;      OG301      CG331       HGA3
   17    18    71	5 ;      OG301      CG331       HGA3
   17    18    72	5 ;      OG301      CG331       HGA3
   70    18    71	5 ;       HGA3      CG331       HGA3
   70    18    72	5 ;       HGA3      CG331       HGA3
   71    18    72	5 ;       HGA3      CG331       HGA3
   43    19    20	5 ;      OG311      CG311      CG324
   43    19    11	5 ;      OG311      CG311      CG311
   43    19    54	5 ;      OG311      CG311       HGA1
   20    19    11	5 ;      CG324      CG311      CG311
   20    19    54	5 ;      CG324      CG311       HGA1
   11    19    54	5 ;      CG311      CG311       HGA1
   19    20    21	5 ;      CG311      CG324      NG3P2
   19    20    55	5 ;      CG311      CG324       HGA2
   19    20    56	5 ;      CG311      CG324       HGA2
   21    20    55	5 ;      NG3P2      CG324       HGA2
   21    20    56	5 ;      NG3P2      CG324       HGA2
   55    20    56	5 ;       HGA2      CG324       HGA2
   23    21    20	5 ;       HGP2      NG3P2      CG324
   23    21    22	5 ;       HGP2      NG3P2       HGP2
   23    21    24	5 ;       HGP2      NG3P2      CG314
   20    21    22	5 ;      CG324      NG3P2       HGP2
   20    21    24	5 ;      CG324      NG3P2      CG314
   22    21    24	5 ;       HGP2      NG3P2      CG314
   21    24    25	5 ;      NG3P2      CG314      CG321
   21    24    32	5 ;      NG3P2      CG314     CG2DC1
   21    24    57	5 ;      NG3P2      CG314       HGA1
   25    24    32	5 ;      CG321      CG314     CG2DC1
   25    24    57	5 ;      CG321      CG314       HGA1
   32    24    57	5 ;     CG2DC1      CG314       HGA1
   24    25    26	5 ;      CG314      CG321     CG3C41
   24    25    58	5 ;      CG314      CG321       HGA2
   24    25    59	5 ;      CG314      CG321       HGA2
   26    25    58	5 ;     CG3C41      CG321       HGA2
   26    25    59	5 ;     CG3C41      CG321       HGA2
   58    25    59	5 ;       HGA2      CG321       HGA2
   25    26    29	5 ;      CG321     CG3C41     CG3C41
   25    26    28	5 ;      CG321     CG3C41     CG3C41
   25    26    27	5 ;      CG321     CG3C41     OG3C61
   29    26    28	5 ;     CG3C41     CG3C41     CG3C41
   29    26    27	5 ;     CG3C41     CG3C41     OG3C61
   28    26    27	5 ;     CG3C41     CG3C41     OG3C61
   26    27    30	5 ;     CG3C41     OG3C61      CG311
   37    28    26	5 ;     CG3C41     CG3C41     CG3C41
   37    28    60	5 ;     CG3C41     CG3C41       HGA2
   37    28    61	5 ;     CG3C41     CG3C41       HGA2
   26    28    60	5 ;     CG3C41     CG3C41       HGA2
   26    28    61	5 ;     CG3C41     CG3C41       HGA2
   60    28    61	5 ;       HGA2     CG3C41       HGA2
   37    29    26	5 ;     CG3C41     CG3C41     CG3C41
   37    29    62	5 ;     CG3C41     CG3C41       HGA2
   37    29    63	5 ;     CG3C41     CG3C41       HGA2
   26    29    62	5 ;     CG3C41     CG3C41       HGA2
   26    29    63	5 ;     CG3C41     CG3C41       HGA2
   62    29    63	5 ;       HGA2     CG3C41       HGA2
   32    30    27	5 ;     CG2DC1      CG311     OG3C61
   32    30    31	5 ;     CG2DC1      CG311      NG311
   32    30    82	5 ;     CG2DC1      CG311       HGA1
   27    30    31	5 ;     OG3C61      CG311      NG311
   27    30    82	5 ;     OG3C61      CG311       HGA1
   31    30    82	5 ;      NG311      CG311       HGA1
   30    31    34	5 ;      CG311      NG311     HGPAM1
   30    31    33	5 ;      CG311      NG311     CG2D2O
   34    31    33	5 ;     HGPAM1      NG311     CG2D2O
   24    32    36	5 ;      CG314     CG2DC1     CG2DC1
   24    32    30	5 ;      CG314     CG2DC1      CG311
   36    32    30	5 ;     CG2DC1     CG2DC1      CG311
   31    33    35	5 ;      NG311     CG2D2O     CG2DC2
   31    33    64	5 ;      NG311     CG2D2O       HGA4
   35    33    64	5 ;     CG2DC2     CG2D2O       HGA4
   36    35    33	5 ;     CG2DC1     CG2DC2     CG2D2O
   36    35    38	5 ;     CG2DC1     CG2DC2      CG321
   33    35    38	5 ;     CG2D2O     CG2DC2      CG321
   32    36    35	5 ;     CG2DC1     CG2DC1     CG2DC2
   32    36    65	5 ;     CG2DC1     CG2DC1       HGA4
   35    36    65	5 ;     CG2DC2     CG2DC1       HGA4
   29    37    28	5 ;     CG3C41     CG3C41     CG3C41
   29    37    66	5 ;     CG3C41     CG3C41       HGA2
   29    37    67	5 ;     CG3C41     CG3C41       HGA2
   28    37    66	5 ;     CG3C41     CG3C41       HGA2
   28    37    67	5 ;     CG3C41     CG3C41       HGA2
   66    37    67	5 ;       HGA2     CG3C41       HGA2
   35    38    39	5 ;     CG2DC2      CG321      CG301
   35    38    68	5 ;     CG2DC2      CG321       HGA2
   35    38    69	5 ;     CG2DC2      CG321       HGA2
   39    38    68	5 ;      CG301      CG321       HGA2
   39    38    69	5 ;      CG301      CG321       HGA2
   68    38    69	5 ;       HGA2      CG321       HGA2
   40    39    42	5 ;      CG331      CG301      CG331
   40    39    38	5 ;      CG331      CG301      CG321
   40    39    41	5 ;      CG331      CG301      CG331
   42    39    38	5 ;      CG331      CG301      CG321
   42    39    41	5 ;      CG331      CG301      CG331
   38    39    41	5 ;      CG321      CG301      CG331
   39    40    79	5 ;      CG301      CG331       HGA3
   39    40    80	5 ;      CG301      CG331       HGA3
   39    40    81	5 ;      CG301      CG331       HGA3
   79    40    80	5 ;       HGA3      CG331       HGA3
   79    40    81	5 ;       HGA3      CG331       HGA3
   80    40    81	5 ;       HGA3      CG331       HGA3
   39    41    76	5 ;      CG301      CG331       HGA3
   39    41    77	5 ;      CG301      CG331       HGA3
   39    41    78	5 ;      CG301      CG331       HGA3
   76    41    77	5 ;       HGA3      CG331       HGA3
   76    41    78	5 ;       HGA3      CG331       HGA3
   77    41    78	5 ;       HGA3      CG331       HGA3
   39    42    73	5 ;      CG301      CG331       HGA3
   39    42    74	5 ;      CG301      CG331       HGA3
   39    42    75	5 ;      CG301      CG331       HGA3
   73    42    74	5 ;       HGA3      CG331       HGA3
   73    42    75	5 ;       HGA3      CG331       HGA3
   74    42    75	5 ;       HGA3      CG331       HGA3
   44    43    19	5 ;       HGP1      OG311      CG311

[ dihedrals ]
;	ai	  aj	ak	  al funct			  c0			c1			  c2			c3			  c4			c5
    1     2     3    10	 9 ;       FGR1     CG2R66     CG2R61      CG321
    1     2     3     4	 9 ;       FGR1     CG2R66     CG2R61     CG2R61
    7     2     3    10	 9 ;     CG2R61     CG2R66     CG2R61      CG321
    7     2     3     4	 9 ;     CG2R61     CG2R66     CG2R61     CG2R61
    1     2     7     8	 9 ;       FGR1     CG2R66     CG2R61      CG1T1
    1     2     7     6	 9 ;       FGR1     CG2R66     CG2R61     CG2R61
    3     2     7     8	 9 ;     CG2R61     CG2R66     CG2R61      CG1T1
    3     2     7     6	 9 ;     CG2R61     CG2R66     CG2R61     CG2R61
    2     3    10    11	 9 ;     CG2R66     CG2R61      CG321      CG311
    2     3    10    49	 9 ;     CG2R66     CG2R61      CG321       HGA2
    2     3    10    50	 9 ;     CG2R66     CG2R61      CG321       HGA2
    4     3    10    11	 9 ;     CG2R61     CG2R61      CG321      CG311
    4     3    10    49	 9 ;     CG2R61     CG2R61      CG321       HGA2
    4     3    10    50	 9 ;     CG2R61     CG2R61      CG321       HGA2
   10     3     4     5	 9 ;      CG321     CG2R61     CG2R61     CG2R61
   10     3     4    45	 9 ;      CG321     CG2R61     CG2R61      HGR61
    2     3     4     5	 9 ;     CG2R66     CG2R61     CG2R61     CG2R61
    2     3     4    45	 9 ;     CG2R66     CG2R61     CG2R61      HGR61
    3     4     5     6	 9 ;     CG2R61     CG2R61     CG2R61     CG2R61
    3     4     5    46	 9 ;     CG2R61     CG2R61     CG2R61      HGR61
   45     4     5     6	 9 ;      HGR61     CG2R61     CG2R61     CG2R61
   45     4     5    46	 9 ;      HGR61     CG2R61     CG2R61      HGR61
    4     5     6     7	 9 ;     CG2R61     CG2R61     CG2R61     CG2R61
    4     5     6    47	 9 ;     CG2R61     CG2R61     CG2R61      HGR61
   46     5     6     7	 9 ;      HGR61     CG2R61     CG2R61     CG2R61
   46     5     6    47	 9 ;      HGR61     CG2R61     CG2R61      HGR61
    5     6     7     2	 9 ;     CG2R61     CG2R61     CG2R61     CG2R66
    5     6     7     8	 9 ;     CG2R61     CG2R61     CG2R61      CG1T1
   47     6     7     2	 9 ;      HGR61     CG2R61     CG2R61     CG2R66
   47     6     7     8	 9 ;      HGR61     CG2R61     CG2R61      CG1T1
    3    10    11    12	 9 ;     CG2R61      CG321      CG311      NG2S1
    3    10    11    19	 9 ;     CG2R61      CG321      CG311      CG311
    3    10    11    51	 9 ;     CG2R61      CG321      CG311       HGA1
   49    10    11    12	 9 ;       HGA2      CG321      CG311      NG2S1
   49    10    11    19	 9 ;       HGA2      CG321      CG311      CG311
   49    10    11    51	 9 ;       HGA2      CG321      CG311       HGA1
   50    10    11    12	 9 ;       HGA2      CG321      CG311      NG2S1
   50    10    11    19	 9 ;       HGA2      CG321      CG311      CG311
   50    10    11    51	 9 ;       HGA2      CG321      CG311       HGA1
   19    11    12    13	 9 ;      CG311      CG311      NG2S1      CG2O1
   19    11    12    15	 9 ;      CG311      CG311      NG2S1       HGP1
   10    11    12    13	 9 ;      CG321      CG311      NG2S1      CG2O1
   10    11    12    15	 9 ;      CG321      CG311      NG2S1       HGP1
   51    11    12    13	 9 ;       HGA1      CG311      NG2S1      CG2O1
   51    11    12    15	 9 ;       HGA1      CG311      NG2S1       HGP1
   12    11    19    43	 9 ;      NG2S1      CG311      CG311      OG311
   12    11    19    20	 9 ;      NG2S1      CG311      CG311      CG324
   12    11    19    54	 9 ;      NG2S1      CG311      CG311       HGA1
   10    11    19    43	 9 ;      CG321      CG311      CG311      OG311
   10    11    19    20	 9 ;      CG321      CG311      CG311      CG324
   10    11    19    54	 9 ;      CG321      CG311      CG311       HGA1
   51    11    19    43	 9 ;       HGA1      CG311      CG311      OG311
   51    11    19    20	 9 ;       HGA1      CG311      CG311      CG324
   51    11    19    54	 9 ;       HGA1      CG311      CG311       HGA1
   15    12    13    16	 9 ;       HGP1      NG2S1      CG2O1      CG321
   15    12    13    14	 9 ;       HGP1      NG2S1      CG2O1      OG2D1
   11    12    13    16	 9 ;      CG311      NG2S1      CG2O1      CG321
   11    12    13    14	 9 ;      CG311      NG2S1      CG2O1      OG2D1
   14    13    16    17	 9 ;      OG2D1      CG2O1      CG321      OG301
   14    13    16    52	 9 ;      OG2D1      CG2O1      CG321       HGA2
   14    13    16    53	 9 ;      OG2D1      CG2O1      CG321       HGA2
   12    13    16    17	 9 ;      NG2S1      CG2O1      CG321      OG301
   12    13    16    52	 9 ;      NG2S1      CG2O1      CG321       HGA2
   12    13    16    53	 9 ;      NG2S1      CG2O1      CG321       HGA2
   13    16    17    18	 9 ;      CG2O1      CG321      OG301      CG331
   52    16    17    18	 9 ;       HGA2      CG321      OG301      CG331
   53    16    17    18	 9 ;       HGA2      CG321      OG301      CG331
   16    17    18    70	 9 ;      CG321      OG301      CG331       HGA3
   16    17    18    71	 9 ;      CG321      OG301      CG331       HGA3
   16    17    18    72	 9 ;      CG321      OG301      CG331       HGA3
   20    19    43    44	 9 ;      CG324      CG311      OG311       HGP1
   11    19    43    44	 9 ;      CG311      CG311      OG311       HGP1
   54    19    43    44	 9 ;       HGA1      CG311      OG311       HGP1
   43    19    20    21	 9 ;      OG311      CG311      CG324      NG3P2
   43    19    20    55	 9 ;      OG311      CG311      CG324       HGA2
   43    19    20    56	 9 ;      OG311      CG311      CG324       HGA2
   11    19    20    21	 9 ;      CG311      CG311      CG324      NG3P2
   11    19    20    55	 9 ;      CG311      CG311      CG324       HGA2
   11    19    20    56	 9 ;      CG311      CG311      CG324       HGA2
   54    19    20    21	 9 ;       HGA1      CG311      CG324      NG3P2
   54    19    20    55	 9 ;       HGA1      CG311      CG324       HGA2
   54    19    20    56	 9 ;       HGA1      CG311      CG324       HGA2
   19    20    21    23	 9 ;      CG311      CG324      NG3P2       HGP2
   19    20    21    22	 9 ;      CG311      CG324      NG3P2       HGP2
   19    20    21    24	 9 ;      CG311      CG324      NG3P2      CG314
   55    20    21    23	 9 ;       HGA2      CG324      NG3P2       HGP2
   55    20    21    22	 9 ;       HGA2      CG324      NG3P2       HGP2
   55    20    21    24	 9 ;       HGA2      CG324      NG3P2      CG314
   56    20    21    23	 9 ;       HGA2      CG324      NG3P2       HGP2
   56    20    21    22	 9 ;       HGA2      CG324      NG3P2       HGP2
   56    20    21    24	 9 ;       HGA2      CG324      NG3P2      CG314
   23    21    24    25	 9 ;       HGP2      NG3P2      CG314      CG321
   23    21    24    32	 9 ;       HGP2      NG3P2      CG314     CG2DC1
   23    21    24    57	 9 ;       HGP2      NG3P2      CG314       HGA1
   20    21    24    25	 9 ;      CG324      NG3P2      CG314      CG321
   20    21    24    32	 9 ;      CG324      NG3P2      CG314     CG2DC1
   20    21    24    57	 9 ;      CG324      NG3P2      CG314       HGA1
   22    21    24    25	 9 ;       HGP2      NG3P2      CG314      CG321
   22    21    24    32	 9 ;       HGP2      NG3P2      CG314     CG2DC1
   22    21    24    57	 9 ;       HGP2      NG3P2      CG314       HGA1
   21    24    25    26	 9 ;      NG3P2      CG314      CG321     CG3C41
   21    24    25    58	 9 ;      NG3P2      CG314      CG321       HGA2
   21    24    25    59	 9 ;      NG3P2      CG314      CG321       HGA2
   32    24    25    26	 9 ;     CG2DC1      CG314      CG321     CG3C41
   32    24    25    58	 9 ;     CG2DC1      CG314      CG321       HGA2
   32    24    25    59	 9 ;     CG2DC1      CG314      CG321       HGA2
   57    24    25    26	 9 ;       HGA1      CG314      CG321     CG3C41
   57    24    25    58	 9 ;       HGA1      CG314      CG321       HGA2
   57    24    25    59	 9 ;       HGA1      CG314      CG321       HGA2
   21    24    32    36	 9 ;      NG3P2      CG314     CG2DC1     CG2DC1
   21    24    32    30	 9 ;      NG3P2      CG314     CG2DC1      CG311
   25    24    32    36	 9 ;      CG321      CG314     CG2DC1     CG2DC1
   25    24    32    30	 9 ;      CG321      CG314     CG2DC1      CG311
   57    24    32    36	 9 ;       HGA1      CG314     CG2DC1     CG2DC1
   57    24    32    30	 9 ;       HGA1      CG314     CG2DC1      CG311
   24    25    26    29	 9 ;      CG314      CG321     CG3C41     CG3C41
   24    25    26    28	 9 ;      CG314      CG321     CG3C41     CG3C41
   24    25    26    27	 9 ;      CG314      CG321     CG3C41     OG3C61
   58    25    26    29	 9 ;       HGA2      CG321     CG3C41     CG3C41
   58    25    26    28	 9 ;       HGA2      CG321     CG3C41     CG3C41
   58    25    26    27	 9 ;       HGA2      CG321     CG3C41     OG3C61
   59    25    26    29	 9 ;       HGA2      CG321     CG3C41     CG3C41
   59    25    26    28	 9 ;       HGA2      CG321     CG3C41     CG3C41
   59    25    26    27	 9 ;       HGA2      CG321     CG3C41     OG3C61
   25    26    29    37	 9 ;      CG321     CG3C41     CG3C41     CG3C41
   25    26    29    62	 9 ;      CG321     CG3C41     CG3C41       HGA2
   25    26    29    63	 9 ;      CG321     CG3C41     CG3C41       HGA2
   28    26    29    37	 9 ;     CG3C41     CG3C41     CG3C41     CG3C41
   28    26    29    62	 9 ;     CG3C41     CG3C41     CG3C41       HGA2
   28    26    29    63	 9 ;     CG3C41     CG3C41     CG3C41       HGA2
   27    26    29    37	 9 ;     OG3C61     CG3C41     CG3C41     CG3C41
   27    26    29    62	 9 ;     OG3C61     CG3C41     CG3C41       HGA2
   27    26    29    63	 9 ;     OG3C61     CG3C41     CG3C41       HGA2
   25    26    28    37	 9 ;      CG321     CG3C41     CG3C41     CG3C41
   25    26    28    60	 9 ;      CG321     CG3C41     CG3C41       HGA2
   25    26    28    61	 9 ;      CG321     CG3C41     CG3C41       HGA2
   29    26    28    37	 9 ;     CG3C41     CG3C41     CG3C41     CG3C41
   29    26    28    60	 9 ;     CG3C41     CG3C41     CG3C41       HGA2
   29    26    28    61	 9 ;     CG3C41     CG3C41     CG3C41       HGA2
   27    26    28    37	 9 ;     OG3C61     CG3C41     CG3C41     CG3C41
   27    26    28    60	 9 ;     OG3C61     CG3C41     CG3C41       HGA2
   27    26    28    61	 9 ;     OG3C61     CG3C41     CG3C41       HGA2
   25    26    27    30	 9 ;      CG321     CG3C41     OG3C61      CG311
   29    26    27    30	 9 ;     CG3C41     CG3C41     OG3C61      CG311
   28    26    27    30	 9 ;     CG3C41     CG3C41     OG3C61      CG311
   26    27    30    32	 9 ;     CG3C41     OG3C61      CG311     CG2DC1
   26    27    30    31	 9 ;     CG3C41     OG3C61      CG311      NG311
   26    27    30    82	 9 ;     CG3C41     OG3C61      CG311       HGA1
   26    28    37    29	 9 ;     CG3C41     CG3C41     CG3C41     CG3C41
   26    28    37    66	 9 ;     CG3C41     CG3C41     CG3C41       HGA2
   26    28    37    67	 9 ;     CG3C41     CG3C41     CG3C41       HGA2
   60    28    37    29	 9 ;       HGA2     CG3C41     CG3C41     CG3C41
   60    28    37    66	 9 ;       HGA2     CG3C41     CG3C41       HGA2
   60    28    37    67	 9 ;       HGA2     CG3C41     CG3C41       HGA2
   61    28    37    29	 9 ;       HGA2     CG3C41     CG3C41     CG3C41
   61    28    37    66	 9 ;       HGA2     CG3C41     CG3C41       HGA2
   61    28    37    67	 9 ;       HGA2     CG3C41     CG3C41       HGA2
   26    29    37    28	 9 ;     CG3C41     CG3C41     CG3C41     CG3C41
   26    29    37    66	 9 ;     CG3C41     CG3C41     CG3C41       HGA2
   26    29    37    67	 9 ;     CG3C41     CG3C41     CG3C41       HGA2
   62    29    37    28	 9 ;       HGA2     CG3C41     CG3C41     CG3C41
   62    29    37    66	 9 ;       HGA2     CG3C41     CG3C41       HGA2
   62    29    37    67	 9 ;       HGA2     CG3C41     CG3C41       HGA2
   63    29    37    28	 9 ;       HGA2     CG3C41     CG3C41     CG3C41
   63    29    37    66	 9 ;       HGA2     CG3C41     CG3C41       HGA2
   63    29    37    67	 9 ;       HGA2     CG3C41     CG3C41       HGA2
   27    30    32    24	 9 ;     OG3C61      CG311     CG2DC1      CG314
   27    30    32    36	 9 ;     OG3C61      CG311     CG2DC1     CG2DC1
   31    30    32    24	 9 ;      NG311      CG311     CG2DC1      CG314
   31    30    32    36	 9 ;      NG311      CG311     CG2DC1     CG2DC1
   82    30    32    24	 9 ;       HGA1      CG311     CG2DC1      CG314
   82    30    32    36	 9 ;       HGA1      CG311     CG2DC1     CG2DC1
   32    30    31    34	 9 ;     CG2DC1      CG311      NG311     HGPAM1
   32    30    31    33	 9 ;     CG2DC1      CG311      NG311     CG2D2O
   27    30    31    34	 9 ;     OG3C61      CG311      NG311     HGPAM1
   27    30    31    33	 9 ;     OG3C61      CG311      NG311     CG2D2O
   82    30    31    34	 9 ;       HGA1      CG311      NG311     HGPAM1
   82    30    31    33	 9 ;       HGA1      CG311      NG311     CG2D2O
   30    31    33    35	 9 ;      CG311      NG311     CG2D2O     CG2DC2
   30    31    33    64	 9 ;      CG311      NG311     CG2D2O       HGA4
   34    31    33    35	 9 ;     HGPAM1      NG311     CG2D2O     CG2DC2
   34    31    33    64	 9 ;     HGPAM1      NG311     CG2D2O       HGA4
   24    32    36    35	 9 ;      CG314     CG2DC1     CG2DC1     CG2DC2
   24    32    36    65	 9 ;      CG314     CG2DC1     CG2DC1       HGA4
   30    32    36    35	 9 ;      CG311     CG2DC1     CG2DC1     CG2DC2
   30    32    36    65	 9 ;      CG311     CG2DC1     CG2DC1       HGA4
   31    33    35    36	 9 ;      NG311     CG2D2O     CG2DC2     CG2DC1
   31    33    35    38	 9 ;      NG311     CG2D2O     CG2DC2      CG321
   64    33    35    36	 9 ;       HGA4     CG2D2O     CG2DC2     CG2DC1
   64    33    35    38	 9 ;       HGA4     CG2D2O     CG2DC2      CG321
   33    35    36    32	 9 ;     CG2D2O     CG2DC2     CG2DC1     CG2DC1
   33    35    36    65	 9 ;     CG2D2O     CG2DC2     CG2DC1       HGA4
   38    35    36    32	 9 ;      CG321     CG2DC2     CG2DC1     CG2DC1
   38    35    36    65	 9 ;      CG321     CG2DC2     CG2DC1       HGA4
   36    35    38    39	 9 ;     CG2DC1     CG2DC2      CG321      CG301
   36    35    38    68	 9 ;     CG2DC1     CG2DC2      CG321       HGA2
   36    35    38    69	 9 ;     CG2DC1     CG2DC2      CG321       HGA2
   33    35    38    39	 9 ;     CG2D2O     CG2DC2      CG321      CG301
   33    35    38    68	 9 ;     CG2D2O     CG2DC2      CG321       HGA2
   33    35    38    69	 9 ;     CG2D2O     CG2DC2      CG321       HGA2
   35    38    39    40	 9 ;     CG2DC2      CG321      CG301      CG331
   35    38    39    42	 9 ;     CG2DC2      CG321      CG301      CG331
   35    38    39    41	 9 ;     CG2DC2      CG321      CG301      CG331
   68    38    39    40	 9 ;       HGA2      CG321      CG301      CG331
   68    38    39    42	 9 ;       HGA2      CG321      CG301      CG331
   68    38    39    41	 9 ;       HGA2      CG321      CG301      CG331
   69    38    39    40	 9 ;       HGA2      CG321      CG301      CG331
   69    38    39    42	 9 ;       HGA2      CG321      CG301      CG331
   69    38    39    41	 9 ;       HGA2      CG321      CG301      CG331
   42    39    40    79	 9 ;      CG331      CG301      CG331       HGA3
   42    39    40    80	 9 ;      CG331      CG301      CG331       HGA3
   42    39    40    81	 9 ;      CG331      CG301      CG331       HGA3
   38    39    40    79	 9 ;      CG321      CG301      CG331       HGA3
   38    39    40    80	 9 ;      CG321      CG301      CG331       HGA3
   38    39    40    81	 9 ;      CG321      CG301      CG331       HGA3
   41    39    40    79	 9 ;      CG331      CG301      CG331       HGA3
   41    39    40    80	 9 ;      CG331      CG301      CG331       HGA3
   41    39    40    81	 9 ;      CG331      CG301      CG331       HGA3
   40    39    42    73	 9 ;      CG331      CG301      CG331       HGA3
   40    39    42    74	 9 ;      CG331      CG301      CG331       HGA3
   40    39    42    75	 9 ;      CG331      CG301      CG331       HGA3
   38    39    42    73	 9 ;      CG321      CG301      CG331       HGA3
   38    39    42    74	 9 ;      CG321      CG301      CG331       HGA3
   38    39    42    75	 9 ;      CG321      CG301      CG331       HGA3
   41    39    42    73	 9 ;      CG331      CG301      CG331       HGA3
   41    39    42    74	 9 ;      CG331      CG301      CG331       HGA3
   41    39    42    75	 9 ;      CG331      CG301      CG331       HGA3
   40    39    41    76	 9 ;      CG331      CG301      CG331       HGA3
   40    39    41    77	 9 ;      CG331      CG301      CG331       HGA3
   40    39    41    78	 9 ;      CG331      CG301      CG331       HGA3
   42    39    41    76	 9 ;      CG331      CG301      CG331       HGA3
   42    39    41    77	 9 ;      CG331      CG301      CG331       HGA3
   42    39    41    78	 9 ;      CG331      CG301      CG331       HGA3
   38    39    41    76	 9 ;      CG321      CG301      CG331       HGA3
   38    39    41    77	 9 ;      CG321      CG301      CG331       HGA3
   38    39    41    78	 9 ;      CG321      CG301      CG331       HGA3

[ dihedrals ]
;	ai	  aj	ak	  al funct			  c0			c1			  c2			c3
   13    16    12    14	 2
   33    35    31    64	 2

