God Rules Over Mankind, Animals, Cosmos and Such
   46
    1LIG     C1    1  -1.374   0.319  -1.535
    1LIG     N1    2  -1.338   0.446  -1.525
    1LIG     C2    3  -1.200   0.489  -1.496
    1LIG     C3    4  -1.136   0.391  -1.396
    1LIG     C4    5  -1.156   0.248  -1.439
    1LIG     C5    6  -1.275   0.212  -1.506
    1LIG     C6    7  -1.294   0.077  -1.540
    1LIG     C7    8  -1.198  -0.019  -1.509
    1LIG     C8    9  -1.081   0.018  -1.444
    1LIG     CL   10  -0.961  -0.100  -1.409
    1LIG     C9   11  -1.059   0.150  -1.408
    1LIG    C10   12  -1.207   0.630  -1.437
    1LIG    C11   13  -1.123   0.494  -1.629
    1LIG     H1   14  -1.410   0.515  -1.542
    1LIG     N2   15  -1.497   0.288  -1.568
    1LIG     H2   16  -1.548   0.212  -1.521
    1LIG     CA   17  -1.592   0.352  -1.665
    1LIG    C12   18  -1.656   0.461  -1.573
    1LIG      O   19  -1.627   0.580  -1.600
    1LIG    OXT   20  -1.711   0.409  -1.471
    1LIG    C13   21  -1.693   0.249  -1.711
    1LIG    C14   22  -1.811   0.303  -1.787
    1LIG    C15   23  -1.799   0.357  -1.914
    1LIG      S   24  -1.946   0.417  -1.975
    1LIG    C16   25  -2.030   0.369  -1.834
    1LIG    C17   26  -1.946   0.309  -1.743
    1LIG     BR   27  -2.006   0.242  -1.577
    1LIG    HC2   28  -1.029   0.412  -1.390
    1LIG    HC3   29  -1.181   0.406  -1.298
    1LIG     HC   30  -1.385   0.048  -1.591
    1LIG    HC1   31  -1.214  -0.122  -1.536
    1LIG    HC4   32  -0.969   0.178  -1.355
    1LIG    HC5   33  -1.262   0.626  -1.343
    1LIG    HC6   34  -1.107   0.667  -1.419
    1LIG    HC7   35  -1.259   0.696  -1.507
    1LIG    HC8   36  -1.117   0.394  -1.672
    1LIG    HC9   37  -1.174   0.560  -1.699
    1LIG   HC10   38  -1.022   0.531  -1.611
    1LIG   HC11   39  -1.539   0.397  -1.749
    1LIG   HC12   40  -1.730   0.197  -1.622
    1LIG   HC13   41  -1.641   0.176  -1.773
    1LIG   HC14   42  -1.706   0.361  -1.968
    1LIG   HC15   43  -2.136   0.384  -1.819
    1LIG    H19   44  -1.345   0.318  -1.640
    1LIG    LP1   45  -0.847  -0.213  -1.375
    1LIG    LP2   46  -2.065   0.176  -1.410
   0.00000   0.00000   0.00000
