; Created by cgenff_charmm2gmx.py

[ moleculetype ]
; Name			   nrexcl
LIG				 3

[ atoms ]
;	 nr		  type	resnr residue  atom   cgnr	   charge		mass  typeB    chargeB		massB
; residue	 1 LIG rtp LIG q	qsum
     1      CG311      1    LIG     C1      1      0.346     12.011   ;
     2      NG311      1    LIG     N1      2     -0.864     14.007   ;
     3      CG301      1    LIG     C2      3      0.375     12.011   ;
     4      CG321      1    LIG     C3      4     -0.230     12.011   ;
     5     CG2R61      1    LIG     C4      5      0.075     12.011   ;
     6     CG2R61      1    LIG     C5      6     -0.052     12.011   ;
     7     CG2R61      1    LIG     C6      7     -0.108     12.011   ;
     8     CG2R61      1    LIG     C7      8     -0.099     12.011   ;
     9     CG2R61      1    LIG     C8      9      0.048     12.011   ;
    10      CLGR1      1    LIG     CL     10     -0.200     35.453   ;
    11     CG2R61      1    LIG     C9     11     -0.121     12.011   ;
    12      CG331      1    LIG    C10     12     -0.295     12.011   ;
    13      CG331      1    LIG    C11     13     -0.295     12.011   ;
    14     HGPAM1      1    LIG     H1     14      0.350      1.008   ;
    15      NG311      1    LIG     N2     15     -0.806     14.007   ;
    16     HGPAM1      1    LIG     H2     16      0.362      1.008   ;
    17      CG311      1    LIG     CA     17     -0.001     12.011   ;
    18      CG2O3      1    LIG    C12     18      0.898     12.011   ;
    19      OG2D2      1    LIG      O     19     -0.832     15.999   ;
    20      OG2D2      1    LIG    OXT     20     -0.832     15.999   ;
    21      CG321      1    LIG    C13     21     -0.207     12.011   ;
    22     CG2R51      1    LIG    C14     22      0.104     12.011   ;
    23     CG2R51      1    LIG    C15     23     -0.177     12.011   ;
    24     SG2R50      1    LIG      S     24     -0.092     32.060   ;
    25     CG2R51      1    LIG    C16     25     -0.192     12.011   ;
    26     CG2R51      1    LIG    C17     26      0.039     12.011   ;
    27      BRGR1      1    LIG     BR     27     -0.163     79.904   ;
    28       HGA2      1    LIG    HC2     28      0.090      1.008   ;
    29       HGA2      1    LIG    HC3     29      0.090      1.008   ;
    30      HGR61      1    LIG     HC     30      0.116      1.008   ;
    31      HGR62      1    LIG    HC1     31      0.150      1.008   ;
    32      HGR62      1    LIG    HC4     32      0.145      1.008   ;
    33       HGA3      1    LIG    HC5     33      0.090      1.008   ;
    34       HGA3      1    LIG    HC6     34      0.090      1.008   ;
    35       HGA3      1    LIG    HC7     35      0.090      1.008   ;
    36       HGA3      1    LIG    HC8     36      0.090      1.008   ;
    37       HGA3      1    LIG    HC9     37      0.090      1.008   ;
    38       HGA3      1    LIG   HC10     38      0.090      1.008   ;
    39       HGA1      1    LIG   HC11     39      0.090      1.008   ;
    40       HGA2      1    LIG   HC12     40      0.090      1.008   ;
    41       HGA2      1    LIG   HC13     41      0.090      1.008   ;
    42      HGR52      1    LIG   HC14     42      0.195      1.008   ;
    43      HGR52      1    LIG   HC15     43      0.183      1.008   ;
    44       HGA1      1    LIG    H19     44      0.090      1.008   ;
    45        LPH      1    LIG    LP1     45      0.050      0.000   ;
    46        LPH      1    LIG    LP2     46      0.050      0.000   ;

[ bonds ]
;	ai	  aj funct			  c0			c1			  c2			c3
    1     2	 1 ;       CG311      NG311
    1     6	 1 ;       CG311     CG2R61
    1    15	 1 ;       CG311      NG311
    1    44	 1 ;       CG311       HGA1
    2     3	 1 ;       NG311      CG301
    2    14	 1 ;       NG311     HGPAM1
    3    13	 1 ;       CG301      CG331
    3    12	 1 ;       CG301      CG331
    3     4	 1 ;       CG301      CG321
    4     5	 1 ;       CG321     CG2R61
    4    28	 1 ;       CG321       HGA2
    4    29	 1 ;       CG321       HGA2
    5    11	 1 ;      CG2R61     CG2R61
    5     6	 1 ;      CG2R61     CG2R61
    6     7	 1 ;      CG2R61     CG2R61
    7     8	 1 ;      CG2R61     CG2R61
    7    30	 1 ;      CG2R61      HGR61
    8     9	 1 ;      CG2R61     CG2R61
    8    31	 1 ;      CG2R61      HGR62
    9    10	 1 ;      CG2R61      CLGR1
    9    11	 1 ;      CG2R61     CG2R61
   11    32	 1 ;      CG2R61      HGR62
   12    33	 1 ;       CG331       HGA3
   12    34	 1 ;       CG331       HGA3
   12    35	 1 ;       CG331       HGA3
   13    36	 1 ;       CG331       HGA3
   13    37	 1 ;       CG331       HGA3
   13    38	 1 ;       CG331       HGA3
   15    17	 1 ;       NG311      CG311
   15    16	 1 ;       NG311     HGPAM1
   17    21	 1 ;       CG311      CG321
   17    18	 1 ;       CG311      CG2O3
   17    39	 1 ;       CG311       HGA1
   18    19	 1 ;       CG2O3      OG2D2
   18    20	 1 ;       CG2O3      OG2D2
   21    22	 1 ;       CG321     CG2R51
   21    40	 1 ;       CG321       HGA2
   21    41	 1 ;       CG321       HGA2
   22    23	 1 ;      CG2R51     CG2R51
   22    26	 1 ;      CG2R51     CG2R51
   23    24	 1 ;      CG2R51     SG2R50
   23    42	 1 ;      CG2R51      HGR52
   24    25	 1 ;      SG2R50     CG2R51
   25    26	 1 ;      CG2R51     CG2R51
   25    43	 1 ;      CG2R51      HGR52
   26    27	 1 ;      CG2R51      BRGR1

[ pairs ]
;	ai	  aj funct			  c0			c1			  c2			c3
    1    13	 1
    1    12	 1
    1     4	 1
    1    11	 1
    1     8	 1
    1    30	 1
    1    21	 1
    1    18	 1
    1    39	 1
    2     5	 1
    2     7	 1
    2    17	 1
    2    16	 1
    2    36	 1
    2    37	 1
    2    38	 1
    2    33	 1
    2    34	 1
    2    35	 1
    2    28	 1
    2    29	 1
    3     6	 1
    3    15	 1
    3    44	 1
    3    11	 1
    4    14	 1
    4    36	 1
    4    37	 1
    4    38	 1
    4    33	 1
    4    34	 1
    4    35	 1
    4     9	 1
    4    32	 1
    4     7	 1
    5    15	 1
    5    44	 1
    5    13	 1
    5    12	 1
    5     8	 1
    5    30	 1
    5    10	 1
   45     5	 1
    6    14	 1
    6    17	 1
    6    16	 1
    6    28	 1
    6    29	 1
    6     9	 1
    6    32	 1
    6    31	 1
    7    15	 1
    7    44	 1
    7    11	 1
    7    10	 1
   45     7	 1
    8    32	 1
    9    30	 1
   10    31	 1
   45    31	 1
   10    32	 1
   45    32	 1
   11    28	 1
   11    29	 1
   11    31	 1
   12    14	 1
   12    36	 1
   12    37	 1
   12    38	 1
   12    28	 1
   12    29	 1
   13    14	 1
   13    33	 1
   13    34	 1
   13    35	 1
   13    28	 1
   13    29	 1
   14    15	 1
   14    44	 1
   15    22	 1
   15    40	 1
   15    41	 1
   15    19	 1
   15    20	 1
   16    44	 1
   16    21	 1
   16    18	 1
   16    39	 1
   17    44	 1
   17    23	 1
   17    26	 1
   18    22	 1
   18    40	 1
   18    41	 1
   19    21	 1
   19    39	 1
   20    21	 1
   20    39	 1
   21    24	 1
   21    42	 1
   21    25	 1
   21    27	 1
   46    21	 1
   22    39	 1
   22    43	 1
   23    40	 1
   23    41	 1
   23    27	 1
   46    23	 1
   23    43	 1
   24    27	 1
   46    24	 1
   25    42	 1
   26    40	 1
   26    41	 1
   26    42	 1
   27    43	 1
   46    43	 1
   30    31	 1
   39    40	 1
   39    41	 1

[ angles ]
;	ai	  aj	ak funct			c0			  c1			c2			  c3
    2     1     6	5 ;      NG311      CG311     CG2R61
    2     1    15	5 ;      NG311      CG311      NG311
    2     1    44	5 ;      NG311      CG311       HGA1
    6     1    15	5 ;     CG2R61      CG311      NG311
    6     1    44	5 ;     CG2R61      CG311       HGA1
   15     1    44	5 ;      NG311      CG311       HGA1
    3     2    14	5 ;      CG301      NG311     HGPAM1
    3     2     1	5 ;      CG301      NG311      CG311
   14     2     1	5 ;     HGPAM1      NG311      CG311
   13     3    12	5 ;      CG331      CG301      CG331
   13     3     4	5 ;      CG331      CG301      CG321
   13     3     2	5 ;      CG331      CG301      NG311
   12     3     4	5 ;      CG331      CG301      CG321
   12     3     2	5 ;      CG331      CG301      NG311
    4     3     2	5 ;      CG321      CG301      NG311
    3     4     5	5 ;      CG301      CG321     CG2R61
    3     4    28	5 ;      CG301      CG321       HGA2
    3     4    29	5 ;      CG301      CG321       HGA2
    5     4    28	5 ;     CG2R61      CG321       HGA2
    5     4    29	5 ;     CG2R61      CG321       HGA2
   28     4    29	5 ;       HGA2      CG321       HGA2
   11     5     4	5 ;     CG2R61     CG2R61      CG321
   11     5     6	5 ;     CG2R61     CG2R61     CG2R61
    4     5     6	5 ;      CG321     CG2R61     CG2R61
    5     6     7	5 ;     CG2R61     CG2R61     CG2R61
    5     6     1	5 ;     CG2R61     CG2R61      CG311
    7     6     1	5 ;     CG2R61     CG2R61      CG311
    8     7     6	5 ;     CG2R61     CG2R61     CG2R61
    8     7    30	5 ;     CG2R61     CG2R61      HGR61
    6     7    30	5 ;     CG2R61     CG2R61      HGR61
    9     8     7	5 ;     CG2R61     CG2R61     CG2R61
    9     8    31	5 ;     CG2R61     CG2R61      HGR62
    7     8    31	5 ;     CG2R61     CG2R61      HGR62
   10     9    11	5 ;      CLGR1     CG2R61     CG2R61
   10     9     8	5 ;      CLGR1     CG2R61     CG2R61
   11     9     8	5 ;     CG2R61     CG2R61     CG2R61
    9    11     5	5 ;     CG2R61     CG2R61     CG2R61
    9    11    32	5 ;     CG2R61     CG2R61      HGR62
    5    11    32	5 ;     CG2R61     CG2R61      HGR62
    3    12    33	5 ;      CG301      CG331       HGA3
    3    12    34	5 ;      CG301      CG331       HGA3
    3    12    35	5 ;      CG301      CG331       HGA3
   33    12    34	5 ;       HGA3      CG331       HGA3
   33    12    35	5 ;       HGA3      CG331       HGA3
   34    12    35	5 ;       HGA3      CG331       HGA3
    3    13    36	5 ;      CG301      CG331       HGA3
    3    13    37	5 ;      CG301      CG331       HGA3
    3    13    38	5 ;      CG301      CG331       HGA3
   36    13    37	5 ;       HGA3      CG331       HGA3
   36    13    38	5 ;       HGA3      CG331       HGA3
   37    13    38	5 ;       HGA3      CG331       HGA3
    1    15    17	5 ;      CG311      NG311      CG311
    1    15    16	5 ;      CG311      NG311     HGPAM1
   17    15    16	5 ;      CG311      NG311     HGPAM1
   15    17    21	5 ;      NG311      CG311      CG321
   15    17    18	5 ;      NG311      CG311      CG2O3
   15    17    39	5 ;      NG311      CG311       HGA1
   21    17    18	5 ;      CG321      CG311      CG2O3
   21    17    39	5 ;      CG321      CG311       HGA1
   18    17    39	5 ;      CG2O3      CG311       HGA1
   17    18    19	5 ;      CG311      CG2O3      OG2D2
   17    18    20	5 ;      CG311      CG2O3      OG2D2
   19    18    20	5 ;      OG2D2      CG2O3      OG2D2
   17    21    22	5 ;      CG311      CG321     CG2R51
   17    21    40	5 ;      CG311      CG321       HGA2
   17    21    41	5 ;      CG311      CG321       HGA2
   22    21    40	5 ;     CG2R51      CG321       HGA2
   22    21    41	5 ;     CG2R51      CG321       HGA2
   40    21    41	5 ;       HGA2      CG321       HGA2
   23    22    21	5 ;     CG2R51     CG2R51      CG321
   23    22    26	5 ;     CG2R51     CG2R51     CG2R51
   21    22    26	5 ;      CG321     CG2R51     CG2R51
   24    23    22	5 ;     SG2R50     CG2R51     CG2R51
   24    23    42	5 ;     SG2R50     CG2R51      HGR52
   22    23    42	5 ;     CG2R51     CG2R51      HGR52
   23    24    25	5 ;     CG2R51     SG2R50     CG2R51
   24    25    26	5 ;     SG2R50     CG2R51     CG2R51
   24    25    43	5 ;     SG2R50     CG2R51      HGR52
   26    25    43	5 ;     CG2R51     CG2R51      HGR52
   22    26    25	5 ;     CG2R51     CG2R51     CG2R51
   22    26    27	5 ;     CG2R51     CG2R51      BRGR1
   25    26    27	5 ;     CG2R51     CG2R51      BRGR1

[ dihedrals ]
;	ai	  aj	ak	  al funct			  c0			c1			  c2			c3			  c4			c5
    6     1     2     3	 9 ;     CG2R61      CG311      NG311      CG301
    6     1     2    14	 9 ;     CG2R61      CG311      NG311     HGPAM1
   15     1     2     3	 9 ;      NG311      CG311      NG311      CG301
   15     1     2    14	 9 ;      NG311      CG311      NG311     HGPAM1
   44     1     2     3	 9 ;       HGA1      CG311      NG311      CG301
   44     1     2    14	 9 ;       HGA1      CG311      NG311     HGPAM1
    2     1     6     5	 9 ;      NG311      CG311     CG2R61     CG2R61
    2     1     6     7	 9 ;      NG311      CG311     CG2R61     CG2R61
   15     1     6     5	 9 ;      NG311      CG311     CG2R61     CG2R61
   15     1     6     7	 9 ;      NG311      CG311     CG2R61     CG2R61
   44     1     6     5	 9 ;       HGA1      CG311     CG2R61     CG2R61
   44     1     6     7	 9 ;       HGA1      CG311     CG2R61     CG2R61
    2     1    15    17	 9 ;      NG311      CG311      NG311      CG311
    2     1    15    16	 9 ;      NG311      CG311      NG311     HGPAM1
    6     1    15    17	 9 ;     CG2R61      CG311      NG311      CG311
    6     1    15    16	 9 ;     CG2R61      CG311      NG311     HGPAM1
   44     1    15    17	 9 ;       HGA1      CG311      NG311      CG311
   44     1    15    16	 9 ;       HGA1      CG311      NG311     HGPAM1
   14     2     3    13	 9 ;     HGPAM1      NG311      CG301      CG331
   14     2     3    12	 9 ;     HGPAM1      NG311      CG301      CG331
   14     2     3     4	 9 ;     HGPAM1      NG311      CG301      CG321
    1     2     3    13	 9 ;      CG311      NG311      CG301      CG331
    1     2     3    12	 9 ;      CG311      NG311      CG301      CG331
    1     2     3     4	 9 ;      CG311      NG311      CG301      CG321
   12     3    13    36	 9 ;      CG331      CG301      CG331       HGA3
   12     3    13    37	 9 ;      CG331      CG301      CG331       HGA3
   12     3    13    38	 9 ;      CG331      CG301      CG331       HGA3
    4     3    13    36	 9 ;      CG321      CG301      CG331       HGA3
    4     3    13    37	 9 ;      CG321      CG301      CG331       HGA3
    4     3    13    38	 9 ;      CG321      CG301      CG331       HGA3
    2     3    13    36	 9 ;      NG311      CG301      CG331       HGA3
    2     3    13    37	 9 ;      NG311      CG301      CG331       HGA3
    2     3    13    38	 9 ;      NG311      CG301      CG331       HGA3
   13     3    12    33	 9 ;      CG331      CG301      CG331       HGA3
   13     3    12    34	 9 ;      CG331      CG301      CG331       HGA3
   13     3    12    35	 9 ;      CG331      CG301      CG331       HGA3
    4     3    12    33	 9 ;      CG321      CG301      CG331       HGA3
    4     3    12    34	 9 ;      CG321      CG301      CG331       HGA3
    4     3    12    35	 9 ;      CG321      CG301      CG331       HGA3
    2     3    12    33	 9 ;      NG311      CG301      CG331       HGA3
    2     3    12    34	 9 ;      NG311      CG301      CG331       HGA3
    2     3    12    35	 9 ;      NG311      CG301      CG331       HGA3
   13     3     4     5	 9 ;      CG331      CG301      CG321     CG2R61
   13     3     4    28	 9 ;      CG331      CG301      CG321       HGA2
   13     3     4    29	 9 ;      CG331      CG301      CG321       HGA2
   12     3     4     5	 9 ;      CG331      CG301      CG321     CG2R61
   12     3     4    28	 9 ;      CG331      CG301      CG321       HGA2
   12     3     4    29	 9 ;      CG331      CG301      CG321       HGA2
    2     3     4     5	 9 ;      NG311      CG301      CG321     CG2R61
    2     3     4    28	 9 ;      NG311      CG301      CG321       HGA2
    2     3     4    29	 9 ;      NG311      CG301      CG321       HGA2
    3     4     5    11	 9 ;      CG301      CG321     CG2R61     CG2R61
    3     4     5     6	 9 ;      CG301      CG321     CG2R61     CG2R61
   28     4     5    11	 9 ;       HGA2      CG321     CG2R61     CG2R61
   28     4     5     6	 9 ;       HGA2      CG321     CG2R61     CG2R61
   29     4     5    11	 9 ;       HGA2      CG321     CG2R61     CG2R61
   29     4     5     6	 9 ;       HGA2      CG321     CG2R61     CG2R61
    4     5    11     9	 9 ;      CG321     CG2R61     CG2R61     CG2R61
    4     5    11    32	 9 ;      CG321     CG2R61     CG2R61      HGR62
    6     5    11     9	 9 ;     CG2R61     CG2R61     CG2R61     CG2R61
    6     5    11    32	 9 ;     CG2R61     CG2R61     CG2R61      HGR62
   11     5     6     7	 9 ;     CG2R61     CG2R61     CG2R61     CG2R61
   11     5     6     1	 9 ;     CG2R61     CG2R61     CG2R61      CG311
    4     5     6     7	 9 ;      CG321     CG2R61     CG2R61     CG2R61
    4     5     6     1	 9 ;      CG321     CG2R61     CG2R61      CG311
    5     6     7     8	 9 ;     CG2R61     CG2R61     CG2R61     CG2R61
    5     6     7    30	 9 ;     CG2R61     CG2R61     CG2R61      HGR61
    1     6     7     8	 9 ;      CG311     CG2R61     CG2R61     CG2R61
    1     6     7    30	 9 ;      CG311     CG2R61     CG2R61      HGR61
    6     7     8     9	 9 ;     CG2R61     CG2R61     CG2R61     CG2R61
    6     7     8    31	 9 ;     CG2R61     CG2R61     CG2R61      HGR62
   30     7     8     9	 9 ;      HGR61     CG2R61     CG2R61     CG2R61
   30     7     8    31	 9 ;      HGR61     CG2R61     CG2R61      HGR62
    7     8     9    10	 9 ;     CG2R61     CG2R61     CG2R61      CLGR1
    7     8     9    11	 9 ;     CG2R61     CG2R61     CG2R61     CG2R61
   31     8     9    10	 9 ;      HGR62     CG2R61     CG2R61      CLGR1
   31     8     9    11	 9 ;      HGR62     CG2R61     CG2R61     CG2R61
   10     9    11     5	 9 ;      CLGR1     CG2R61     CG2R61     CG2R61
   10     9    11    32	 9 ;      CLGR1     CG2R61     CG2R61      HGR62
    8     9    11     5	 9 ;     CG2R61     CG2R61     CG2R61     CG2R61
    8     9    11    32	 9 ;     CG2R61     CG2R61     CG2R61      HGR62
    1    15    17    21	 9 ;      CG311      NG311      CG311      CG321
    1    15    17    18	 9 ;      CG311      NG311      CG311      CG2O3
    1    15    17    39	 9 ;      CG311      NG311      CG311       HGA1
   16    15    17    21	 9 ;     HGPAM1      NG311      CG311      CG321
   16    15    17    18	 9 ;     HGPAM1      NG311      CG311      CG2O3
   16    15    17    39	 9 ;     HGPAM1      NG311      CG311       HGA1
   15    17    21    22	 9 ;      NG311      CG311      CG321     CG2R51
   15    17    21    40	 9 ;      NG311      CG311      CG321       HGA2
   15    17    21    41	 9 ;      NG311      CG311      CG321       HGA2
   18    17    21    22	 9 ;      CG2O3      CG311      CG321     CG2R51
   18    17    21    40	 9 ;      CG2O3      CG311      CG321       HGA2
   18    17    21    41	 9 ;      CG2O3      CG311      CG321       HGA2
   39    17    21    22	 9 ;       HGA1      CG311      CG321     CG2R51
   39    17    21    40	 9 ;       HGA1      CG311      CG321       HGA2
   39    17    21    41	 9 ;       HGA1      CG311      CG321       HGA2
   15    17    18    19	 9 ;      NG311      CG311      CG2O3      OG2D2
   15    17    18    20	 9 ;      NG311      CG311      CG2O3      OG2D2
   21    17    18    19	 9 ;      CG321      CG311      CG2O3      OG2D2
   21    17    18    20	 9 ;      CG321      CG311      CG2O3      OG2D2
   39    17    18    19	 9 ;       HGA1      CG311      CG2O3      OG2D2
   39    17    18    20	 9 ;       HGA1      CG311      CG2O3      OG2D2
   17    21    22    23	 9 ;      CG311      CG321     CG2R51     CG2R51
   17    21    22    26	 9 ;      CG311      CG321     CG2R51     CG2R51
   40    21    22    23	 9 ;       HGA2      CG321     CG2R51     CG2R51
   40    21    22    26	 9 ;       HGA2      CG321     CG2R51     CG2R51
   41    21    22    23	 9 ;       HGA2      CG321     CG2R51     CG2R51
   41    21    22    26	 9 ;       HGA2      CG321     CG2R51     CG2R51
   21    22    23    24	 9 ;      CG321     CG2R51     CG2R51     SG2R50
   21    22    23    42	 9 ;      CG321     CG2R51     CG2R51      HGR52
   26    22    23    24	 9 ;     CG2R51     CG2R51     CG2R51     SG2R50
   26    22    23    42	 9 ;     CG2R51     CG2R51     CG2R51      HGR52
   23    22    26    25	 9 ;     CG2R51     CG2R51     CG2R51     CG2R51
   23    22    26    27	 9 ;     CG2R51     CG2R51     CG2R51      BRGR1
   21    22    26    25	 9 ;      CG321     CG2R51     CG2R51     CG2R51
   21    22    26    27	 9 ;      CG321     CG2R51     CG2R51      BRGR1
   22    23    24    25	 9 ;     CG2R51     CG2R51     SG2R50     CG2R51
   42    23    24    25	 9 ;      HGR52     CG2R51     SG2R50     CG2R51
   23    24    25    26	 9 ;     CG2R51     SG2R50     CG2R51     CG2R51
   23    24    25    43	 9 ;     CG2R51     SG2R50     CG2R51      HGR52
   24    25    26    22	 9 ;     SG2R50     CG2R51     CG2R51     CG2R51
   24    25    26    27	 9 ;     SG2R50     CG2R51     CG2R51      BRGR1
   43    25    26    22	 9 ;      HGR52     CG2R51     CG2R51     CG2R51
   43    25    26    27	 9 ;      HGR52     CG2R51     CG2R51      BRGR1

[ dihedrals ]
;	ai	  aj	ak	  al funct			  c0			c1			  c2			c3
   18    20    19    17	 2

[ virtual_sites2 ]
; Site   from				funct a
   45    10     9     2   -0.164
   46    27    26     2   -0.189

[ exclusions ]
;	ai	  aj
   10    45
   27    46
   45     9
   46    26
   45    11
   45     8
   46    22
   46    25
   45     5
   45     7
   45    31
   45    32
   46    21
   46    23
   46    24
   46    43

