God Rules Over Mankind, Animals, Cosmos and Such
   49
    1LIG     CL    1  -1.699   0.423  -1.523
    1LIG     C1    2  -1.539   0.381  -1.573
    1LIG     C2    3  -1.451   0.326  -1.481
    1LIG     C3    4  -1.323   0.287  -1.523
    1LIG     C4    5  -1.225   0.224  -1.428
    1LIG     C5    6  -1.147   0.113  -1.501
    1LIG     N1    7  -1.085   0.165  -1.625
    1LIG     HN    8  -0.993   0.131  -1.654
    1LIG     C6    9  -1.147   0.254  -1.696
    1LIG     C7   10  -1.283   0.306  -1.656
    1LIG     C8   11  -1.372   0.363  -1.747
    1LIG     C9   12  -1.500   0.401  -1.705
    1LIG    C10   13  -1.032   0.066  -1.411
    1LIG    C11   14  -1.236  -0.007  -1.535
    1LIG     HC   15  -1.480   0.313  -1.378
    1LIG    HC2   16  -1.279   0.181  -1.344
    1LIG    HC3   17  -1.156   0.300  -1.392
    1LIG    HN2   18  -1.129   0.091  -1.678
    1LIG    HC1   19  -1.342   0.379  -1.850
    1LIG    HC4   20  -1.569   0.445  -1.776
    1LIG    HC5   21  -0.968   0.151  -1.386
    1LIG    HC6   22  -0.974  -0.009  -1.463
    1LIG    HC7   23  -1.073   0.024  -1.319
    1LIG    HC8   24  -1.318   0.024  -1.599
    1LIG    HC9   25  -1.176  -0.083  -1.586
    1LIG   HC10   26  -1.276  -0.050  -1.443
    1LIG    H14   27  -1.194   0.175  -1.755
    1LIG     N2   28  -1.087   0.303  -1.810
    1LIG      H   29  -1.065   0.240  -1.888
    1LIG     CA   30  -0.979   0.404  -1.806
    1LIG    C12   31  -0.865   0.364  -1.906
    1LIG      O   32  -0.821   0.455  -1.982
    1LIG    OXT   33  -0.826   0.243  -1.895
    1LIG     CB   34  -1.028   0.546  -1.832
    1LIG     CG   35  -1.115   0.611  -1.726
    1LIG    CD1   36  -1.230   0.683  -1.761
    1LIG    CE1   37  -1.313   0.736  -1.663
    1LIG     CZ   38  -1.283   0.718  -1.528
    1LIG    CE2   39  -1.167   0.649  -1.492
    1LIG    CD2   40  -1.084   0.596  -1.590
    1LIG     HA   41  -0.936   0.403  -1.706
    1LIG    HB2   42  -0.941   0.610  -1.846
    1LIG    HB3   43  -1.085   0.546  -1.926
    1LIG    HD1   44  -1.253   0.697  -1.865
    1LIG    HE1   45  -1.402   0.791  -1.691
    1LIG     HZ   46  -1.348   0.758  -1.452
    1LIG    HE2   47  -1.142   0.637  -1.387
    1LIG    HD2   48  -0.994   0.543  -1.561
    1LIG    LP1   49  -1.851   0.462  -1.475
   0.00000   0.00000   0.00000
