; Created by cgenff_charmm2gmx.py

[ moleculetype ]
; Name			   nrexcl
LIG				 3

[ atoms ]
;	 nr		  type	resnr residue  atom   cgnr	   charge		mass  typeB    chargeB		massB
; residue	 1 LIG rtp LIG q	qsum
     1      CG321      1    LIG     C1      1     -0.145     12.011   ;
     2     CG2R61      1    LIG     C2      2      0.008     12.011   ;
     3     CG2R61      1    LIG     C3      3     -0.124     12.011   ;
     4     CG2R67      1    LIG     C4      4      0.007     12.011   ;
     5     CG2R61      1    LIG     C5      5     -0.119     12.011   ;
     6     CG2R61      1    LIG     C6      6     -0.115     12.011   ;
     7     CG2R61      1    LIG     C7      7     -0.117     12.011   ;
     8     CG2R67      1    LIG     C8      8      0.006     12.011   ;
     9     CG2R61      1    LIG     C9      9     -0.122     12.011   ;
    10     CG2R61      1    LIG    C10     10      0.209     12.011   ;
    11     CG2R61      1    LIG    C11     11     -0.115     12.011   ;
    12     CG2R61      1    LIG    C12     12     -0.116     12.011   ;
    13     CG2R61      1    LIG    C13     13     -0.119     12.011   ;
    14      OG301      1    LIG     O1     14     -0.383     15.999   ;
    15      CG331      1    LIG    C14     15     -0.094     12.011   ;
    16      CG321      1    LIG    C15     16     -0.178     12.011   ;
    17      CG301      1    LIG    C16     17      0.512     12.011   ;
    18      NG3P2      1    LIG     N1     18     -0.623     14.007   ;
    19      CG314      1    LIG    C17     19      0.982     12.011   ;
    20       HGP2      1    LIG     HN     20      0.345      1.008   ;
    21      NG2S0      1    LIG     N2     21     -0.207     14.007   ;
    22      CG331      1    LIG    C18     22     -0.218     12.011   ;
    23      CG2O1      1    LIG    C19     23      0.530     12.011   ;
    24      OG2D1      1    LIG     O2     24     -0.542     15.999   ;
    25      CG321      1    LIG    C20     25     -0.255     12.011   ;
    26      CG331      1    LIG    C21     26     -0.299     12.011   ;
    27      NG3P3      1    LIG     N3     27     -0.360     14.007   ;
    28       HGP2      1    LIG     H1     28      0.313      1.008   ;
    29       HGP2      1    LIG     H2     29      0.313      1.008   ;
    30       HGA2      1    LIG    HC2     30      0.090      1.008   ;
    31       HGA2      1    LIG    HC3     31      0.090      1.008   ;
    32      HGR61      1    LIG     HC     32      0.116      1.008   ;
    33      HGR61      1    LIG    HC1     33      0.116      1.008   ;
    34      HGR61      1    LIG    HC4     34      0.116      1.008   ;
    35      HGR61      1    LIG    HC5     35      0.116      1.008   ;
    36      HGR61      1    LIG    HC6     36      0.116      1.008   ;
    37      HGR61      1    LIG    HC7     37      0.116      1.008   ;
    38      HGR61      1    LIG    HC8     38      0.116      1.008   ;
    39      HGR61      1    LIG    HC9     39      0.116      1.008   ;
    40       HGA3      1    LIG   HC10     40      0.090      1.008   ;
    41       HGA3      1    LIG   HC11     41      0.090      1.008   ;
    42       HGA3      1    LIG   HC12     42      0.090      1.008   ;
    43       HGA2      1    LIG   HC13     43      0.090      1.008   ;
    44       HGA2      1    LIG   HC14     44      0.090      1.008   ;
    45       HGP2      1    LIG    HN2     45      0.345      1.008   ;
    46       HGA1      1    LIG   HC15     46      0.090      1.008   ;
    47       HGA3      1    LIG   HC16     47      0.090      1.008   ;
    48       HGA3      1    LIG   HC17     48      0.090      1.008   ;
    49       HGA3      1    LIG   HC18     49      0.090      1.008   ;
    50       HGA2      1    LIG   HC19     50      0.090      1.008   ;
    51       HGA2      1    LIG   HC20     51      0.090      1.008   ;
    52       HGA3      1    LIG   HC21     52      0.090      1.008   ;
    53       HGA3      1    LIG   HC22     53      0.090      1.008   ;
    54       HGA3      1    LIG   HC23     54      0.090      1.008   ;
    55       HGP2      1    LIG    HN1     55      0.313      1.008   ;

[ bonds ]
;	ai	  aj funct			  c0			c1			  c2			c3
    1     2	 1 ;       CG321     CG2R61
    1    16	 1 ;       CG321      CG321
    1    30	 1 ;       CG321       HGA2
    1    31	 1 ;       CG321       HGA2
    2     3	 1 ;      CG2R61     CG2R61
    2     7	 1 ;      CG2R61     CG2R61
    3     4	 1 ;      CG2R61     CG2R67
    3    32	 1 ;      CG2R61      HGR61
    4     8	 1 ;      CG2R67     CG2R67
    4     5	 1 ;      CG2R67     CG2R61
    5     6	 1 ;      CG2R61     CG2R61
    5    33	 1 ;      CG2R61      HGR61
    6     7	 1 ;      CG2R61     CG2R61
    6    34	 1 ;      CG2R61      HGR61
    7    35	 1 ;      CG2R61      HGR61
    8     9	 1 ;      CG2R67     CG2R61
    8    13	 1 ;      CG2R67     CG2R61
    9    10	 1 ;      CG2R61     CG2R61
    9    36	 1 ;      CG2R61      HGR61
   10    14	 1 ;      CG2R61      OG301
   10    11	 1 ;      CG2R61     CG2R61
   11    12	 1 ;      CG2R61     CG2R61
   11    37	 1 ;      CG2R61      HGR61
   12    13	 1 ;      CG2R61     CG2R61
   12    38	 1 ;      CG2R61      HGR61
   13    39	 1 ;      CG2R61      HGR61
   14    15	 1 ;       OG301      CG331
   15    40	 1 ;       CG331       HGA3
   15    41	 1 ;       CG331       HGA3
   15    42	 1 ;       CG331       HGA3
   16    17	 1 ;       CG321      CG301
   16    43	 1 ;       CG321       HGA2
   16    44	 1 ;       CG321       HGA2
   17    26	 1 ;       CG301      CG331
   17    18	 1 ;       CG301      NG3P2
   17    25	 1 ;       CG301      CG321
   18    20	 1 ;       NG3P2       HGP2
   18    19	 1 ;       NG3P2      CG314
   18    45	 1 ;       NG3P2       HGP2
   19    27	 1 ;       CG314      NG3P3
   19    21	 1 ;       CG314      NG2S0
   19    46	 1 ;       CG314       HGA1
   21    23	 1 ;       NG2S0      CG2O1
   21    22	 1 ;       NG2S0      CG331
   22    47	 1 ;       CG331       HGA3
   22    48	 1 ;       CG331       HGA3
   22    49	 1 ;       CG331       HGA3
   23    25	 1 ;       CG2O1      CG321
   23    24	 1 ;       CG2O1      OG2D1
   25    50	 1 ;       CG321       HGA2
   25    51	 1 ;       CG321       HGA2
   26    52	 1 ;       CG331       HGA3
   26    53	 1 ;       CG331       HGA3
   26    54	 1 ;       CG331       HGA3
   27    29	 1 ;       NG3P3       HGP2
   27    28	 1 ;       NG3P3       HGP2
   27    55	 1 ;       NG3P3       HGP2

[ pairs ]
;	ai	  aj funct			  c0			c1			  c2			c3
    1     4	 1
    1    32	 1
    1     6	 1
    1    35	 1
    1    26	 1
    1    18	 1
    1    25	 1
    2    17	 1
    2    43	 1
    2    44	 1
    2     8	 1
    2     5	 1
    2    34	 1
    3    16	 1
    3    30	 1
    3    31	 1
    3     6	 1
    3    35	 1
    3     9	 1
    3    13	 1
    3    33	 1
    4     7	 1
    4    34	 1
    4    10	 1
    4    36	 1
    4    12	 1
    4    39	 1
    5    32	 1
    5     9	 1
    5    13	 1
    5    35	 1
    6     8	 1
    7    16	 1
    7    30	 1
    7    31	 1
    7    32	 1
    7    33	 1
    8    32	 1
    8    33	 1
    8    14	 1
    8    11	 1
    8    38	 1
    9    12	 1
    9    39	 1
    9    15	 1
    9    37	 1
   10    13	 1
   10    38	 1
   10    40	 1
   10    41	 1
   10    42	 1
   11    36	 1
   11    15	 1
   11    39	 1
   12    14	 1
   13    36	 1
   13    37	 1
   14    36	 1
   14    37	 1
   16    52	 1
   16    53	 1
   16    54	 1
   16    20	 1
   16    19	 1
   16    45	 1
   16    23	 1
   16    50	 1
   16    51	 1
   17    30	 1
   17    31	 1
   17    27	 1
   17    21	 1
   17    46	 1
   17    24	 1
   18    43	 1
   18    44	 1
   18    52	 1
   18    53	 1
   18    54	 1
   18    23	 1
   18    50	 1
   18    51	 1
   18    29	 1
   18    28	 1
   18    55	 1
   18    22	 1
   19    26	 1
   19    25	 1
   19    24	 1
   19    47	 1
   19    48	 1
   19    49	 1
   20    26	 1
   20    25	 1
   20    27	 1
   20    21	 1
   20    46	 1
   21    45	 1
   21    29	 1
   21    28	 1
   21    55	 1
   21    50	 1
   21    51	 1
   22    27	 1
   22    46	 1
   22    25	 1
   22    24	 1
   23    26	 1
   23    27	 1
   23    46	 1
   23    47	 1
   23    48	 1
   23    49	 1
   24    50	 1
   24    51	 1
   25    43	 1
   25    44	 1
   25    52	 1
   25    53	 1
   25    54	 1
   25    45	 1
   26    43	 1
   26    44	 1
   26    45	 1
   26    50	 1
   26    51	 1
   27    45	 1
   28    46	 1
   29    46	 1
   30    43	 1
   30    44	 1
   31    43	 1
   31    44	 1
   33    34	 1
   34    35	 1
   37    38	 1
   38    39	 1
   45    46	 1
   46    55	 1

[ angles ]
;	ai	  aj	ak funct			c0			  c1			c2			  c3
    2     1    16	5 ;     CG2R61      CG321      CG321
    2     1    30	5 ;     CG2R61      CG321       HGA2
    2     1    31	5 ;     CG2R61      CG321       HGA2
   16     1    30	5 ;      CG321      CG321       HGA2
   16     1    31	5 ;      CG321      CG321       HGA2
   30     1    31	5 ;       HGA2      CG321       HGA2
    3     2     7	5 ;     CG2R61     CG2R61     CG2R61
    3     2     1	5 ;     CG2R61     CG2R61      CG321
    7     2     1	5 ;     CG2R61     CG2R61      CG321
    4     3     2	5 ;     CG2R67     CG2R61     CG2R61
    4     3    32	5 ;     CG2R67     CG2R61      HGR61
    2     3    32	5 ;     CG2R61     CG2R61      HGR61
    8     4     5	5 ;     CG2R67     CG2R67     CG2R61
    8     4     3	5 ;     CG2R67     CG2R67     CG2R61
    5     4     3	5 ;     CG2R61     CG2R67     CG2R61
    4     5     6	5 ;     CG2R67     CG2R61     CG2R61
    4     5    33	5 ;     CG2R67     CG2R61      HGR61
    6     5    33	5 ;     CG2R61     CG2R61      HGR61
    5     6     7	5 ;     CG2R61     CG2R61     CG2R61
    5     6    34	5 ;     CG2R61     CG2R61      HGR61
    7     6    34	5 ;     CG2R61     CG2R61      HGR61
    6     7     2	5 ;     CG2R61     CG2R61     CG2R61
    6     7    35	5 ;     CG2R61     CG2R61      HGR61
    2     7    35	5 ;     CG2R61     CG2R61      HGR61
    9     8    13	5 ;     CG2R61     CG2R67     CG2R61
    9     8     4	5 ;     CG2R61     CG2R67     CG2R67
   13     8     4	5 ;     CG2R61     CG2R67     CG2R67
   10     9     8	5 ;     CG2R61     CG2R61     CG2R67
   10     9    36	5 ;     CG2R61     CG2R61      HGR61
    8     9    36	5 ;     CG2R67     CG2R61      HGR61
   14    10    11	5 ;      OG301     CG2R61     CG2R61
   14    10     9	5 ;      OG301     CG2R61     CG2R61
   11    10     9	5 ;     CG2R61     CG2R61     CG2R61
   10    11    12	5 ;     CG2R61     CG2R61     CG2R61
   10    11    37	5 ;     CG2R61     CG2R61      HGR61
   12    11    37	5 ;     CG2R61     CG2R61      HGR61
   11    12    13	5 ;     CG2R61     CG2R61     CG2R61
   11    12    38	5 ;     CG2R61     CG2R61      HGR61
   13    12    38	5 ;     CG2R61     CG2R61      HGR61
   12    13     8	5 ;     CG2R61     CG2R61     CG2R67
   12    13    39	5 ;     CG2R61     CG2R61      HGR61
    8    13    39	5 ;     CG2R67     CG2R61      HGR61
   15    14    10	5 ;      CG331      OG301     CG2R61
   14    15    40	5 ;      OG301      CG331       HGA3
   14    15    41	5 ;      OG301      CG331       HGA3
   14    15    42	5 ;      OG301      CG331       HGA3
   40    15    41	5 ;       HGA3      CG331       HGA3
   40    15    42	5 ;       HGA3      CG331       HGA3
   41    15    42	5 ;       HGA3      CG331       HGA3
    1    16    17	5 ;      CG321      CG321      CG301
    1    16    43	5 ;      CG321      CG321       HGA2
    1    16    44	5 ;      CG321      CG321       HGA2
   17    16    43	5 ;      CG301      CG321       HGA2
   17    16    44	5 ;      CG301      CG321       HGA2
   43    16    44	5 ;       HGA2      CG321       HGA2
   16    17    26	5 ;      CG321      CG301      CG331
   16    17    18	5 ;      CG321      CG301      NG3P2
   16    17    25	5 ;      CG321      CG301      CG321
   26    17    18	5 ;      CG331      CG301      NG3P2
   26    17    25	5 ;      CG331      CG301      CG321
   18    17    25	5 ;      NG3P2      CG301      CG321
   17    18    20	5 ;      CG301      NG3P2       HGP2
   17    18    19	5 ;      CG301      NG3P2      CG314
   17    18    45	5 ;      CG301      NG3P2       HGP2
   20    18    19	5 ;       HGP2      NG3P2      CG314
   20    18    45	5 ;       HGP2      NG3P2       HGP2
   19    18    45	5 ;      CG314      NG3P2       HGP2
   18    19    27	5 ;      NG3P2      CG314      NG3P3
   18    19    21	5 ;      NG3P2      CG314      NG2S0
   18    19    46	5 ;      NG3P2      CG314       HGA1
   27    19    21	5 ;      NG3P3      CG314      NG2S0
   27    19    46	5 ;      NG3P3      CG314       HGA1
   21    19    46	5 ;      NG2S0      CG314       HGA1
   19    21    23	5 ;      CG314      NG2S0      CG2O1
   19    21    22	5 ;      CG314      NG2S0      CG331
   23    21    22	5 ;      CG2O1      NG2S0      CG331
   21    22    47	5 ;      NG2S0      CG331       HGA3
   21    22    48	5 ;      NG2S0      CG331       HGA3
   21    22    49	5 ;      NG2S0      CG331       HGA3
   47    22    48	5 ;       HGA3      CG331       HGA3
   47    22    49	5 ;       HGA3      CG331       HGA3
   48    22    49	5 ;       HGA3      CG331       HGA3
   25    23    21	5 ;      CG321      CG2O1      NG2S0
   25    23    24	5 ;      CG321      CG2O1      OG2D1
   21    23    24	5 ;      NG2S0      CG2O1      OG2D1
   17    25    23	5 ;      CG301      CG321      CG2O1
   17    25    50	5 ;      CG301      CG321       HGA2
   17    25    51	5 ;      CG301      CG321       HGA2
   23    25    50	5 ;      CG2O1      CG321       HGA2
   23    25    51	5 ;      CG2O1      CG321       HGA2
   50    25    51	5 ;       HGA2      CG321       HGA2
   17    26    52	5 ;      CG301      CG331       HGA3
   17    26    53	5 ;      CG301      CG331       HGA3
   17    26    54	5 ;      CG301      CG331       HGA3
   52    26    53	5 ;       HGA3      CG331       HGA3
   52    26    54	5 ;       HGA3      CG331       HGA3
   53    26    54	5 ;       HGA3      CG331       HGA3
   19    27    29	5 ;      CG314      NG3P3       HGP2
   19    27    28	5 ;      CG314      NG3P3       HGP2
   19    27    55	5 ;      CG314      NG3P3       HGP2
   29    27    28	5 ;       HGP2      NG3P3       HGP2
   29    27    55	5 ;       HGP2      NG3P3       HGP2
   28    27    55	5 ;       HGP2      NG3P3       HGP2

[ dihedrals ]
;	ai	  aj	ak	  al funct			  c0			c1			  c2			c3			  c4			c5
   16     1     2     3	 9 ;      CG321      CG321     CG2R61     CG2R61
   16     1     2     7	 9 ;      CG321      CG321     CG2R61     CG2R61
   30     1     2     3	 9 ;       HGA2      CG321     CG2R61     CG2R61
   30     1     2     7	 9 ;       HGA2      CG321     CG2R61     CG2R61
   31     1     2     3	 9 ;       HGA2      CG321     CG2R61     CG2R61
   31     1     2     7	 9 ;       HGA2      CG321     CG2R61     CG2R61
    2     1    16    17	 9 ;     CG2R61      CG321      CG321      CG301
    2     1    16    43	 9 ;     CG2R61      CG321      CG321       HGA2
    2     1    16    44	 9 ;     CG2R61      CG321      CG321       HGA2
   30     1    16    17	 9 ;       HGA2      CG321      CG321      CG301
   30     1    16    43	 9 ;       HGA2      CG321      CG321       HGA2
   30     1    16    44	 9 ;       HGA2      CG321      CG321       HGA2
   31     1    16    17	 9 ;       HGA2      CG321      CG321      CG301
   31     1    16    43	 9 ;       HGA2      CG321      CG321       HGA2
   31     1    16    44	 9 ;       HGA2      CG321      CG321       HGA2
    7     2     3     4	 9 ;     CG2R61     CG2R61     CG2R61     CG2R67
    7     2     3    32	 9 ;     CG2R61     CG2R61     CG2R61      HGR61
    1     2     3     4	 9 ;      CG321     CG2R61     CG2R61     CG2R67
    1     2     3    32	 9 ;      CG321     CG2R61     CG2R61      HGR61
    3     2     7     6	 9 ;     CG2R61     CG2R61     CG2R61     CG2R61
    3     2     7    35	 9 ;     CG2R61     CG2R61     CG2R61      HGR61
    1     2     7     6	 9 ;      CG321     CG2R61     CG2R61     CG2R61
    1     2     7    35	 9 ;      CG321     CG2R61     CG2R61      HGR61
    2     3     4     8	 9 ;     CG2R61     CG2R61     CG2R67     CG2R67
    2     3     4     5	 9 ;     CG2R61     CG2R61     CG2R67     CG2R61
   32     3     4     8	 9 ;      HGR61     CG2R61     CG2R67     CG2R67
   32     3     4     5	 9 ;      HGR61     CG2R61     CG2R67     CG2R61
    5     4     8     9	 9 ;     CG2R61     CG2R67     CG2R67     CG2R61
    5     4     8    13	 9 ;     CG2R61     CG2R67     CG2R67     CG2R61
    3     4     8     9	 9 ;     CG2R61     CG2R67     CG2R67     CG2R61
    3     4     8    13	 9 ;     CG2R61     CG2R67     CG2R67     CG2R61
    8     4     5     6	 9 ;     CG2R67     CG2R67     CG2R61     CG2R61
    8     4     5    33	 9 ;     CG2R67     CG2R67     CG2R61      HGR61
    3     4     5     6	 9 ;     CG2R61     CG2R67     CG2R61     CG2R61
    3     4     5    33	 9 ;     CG2R61     CG2R67     CG2R61      HGR61
    4     5     6     7	 9 ;     CG2R67     CG2R61     CG2R61     CG2R61
    4     5     6    34	 9 ;     CG2R67     CG2R61     CG2R61      HGR61
   33     5     6     7	 9 ;      HGR61     CG2R61     CG2R61     CG2R61
   33     5     6    34	 9 ;      HGR61     CG2R61     CG2R61      HGR61
    5     6     7     2	 9 ;     CG2R61     CG2R61     CG2R61     CG2R61
    5     6     7    35	 9 ;     CG2R61     CG2R61     CG2R61      HGR61
   34     6     7     2	 9 ;      HGR61     CG2R61     CG2R61     CG2R61
   34     6     7    35	 9 ;      HGR61     CG2R61     CG2R61      HGR61
   13     8     9    10	 9 ;     CG2R61     CG2R67     CG2R61     CG2R61
   13     8     9    36	 9 ;     CG2R61     CG2R67     CG2R61      HGR61
    4     8     9    10	 9 ;     CG2R67     CG2R67     CG2R61     CG2R61
    4     8     9    36	 9 ;     CG2R67     CG2R67     CG2R61      HGR61
    9     8    13    12	 9 ;     CG2R61     CG2R67     CG2R61     CG2R61
    9     8    13    39	 9 ;     CG2R61     CG2R67     CG2R61      HGR61
    4     8    13    12	 9 ;     CG2R67     CG2R67     CG2R61     CG2R61
    4     8    13    39	 9 ;     CG2R67     CG2R67     CG2R61      HGR61
    8     9    10    14	 9 ;     CG2R67     CG2R61     CG2R61      OG301
    8     9    10    11	 9 ;     CG2R67     CG2R61     CG2R61     CG2R61
   36     9    10    14	 9 ;      HGR61     CG2R61     CG2R61      OG301
   36     9    10    11	 9 ;      HGR61     CG2R61     CG2R61     CG2R61
   11    10    14    15	 9 ;     CG2R61     CG2R61      OG301      CG331
    9    10    14    15	 9 ;     CG2R61     CG2R61      OG301      CG331
   14    10    11    12	 9 ;      OG301     CG2R61     CG2R61     CG2R61
   14    10    11    37	 9 ;      OG301     CG2R61     CG2R61      HGR61
    9    10    11    12	 9 ;     CG2R61     CG2R61     CG2R61     CG2R61
    9    10    11    37	 9 ;     CG2R61     CG2R61     CG2R61      HGR61
   10    11    12    13	 9 ;     CG2R61     CG2R61     CG2R61     CG2R61
   10    11    12    38	 9 ;     CG2R61     CG2R61     CG2R61      HGR61
   37    11    12    13	 9 ;      HGR61     CG2R61     CG2R61     CG2R61
   37    11    12    38	 9 ;      HGR61     CG2R61     CG2R61      HGR61
   11    12    13     8	 9 ;     CG2R61     CG2R61     CG2R61     CG2R67
   11    12    13    39	 9 ;     CG2R61     CG2R61     CG2R61      HGR61
   38    12    13     8	 9 ;      HGR61     CG2R61     CG2R61     CG2R67
   38    12    13    39	 9 ;      HGR61     CG2R61     CG2R61      HGR61
   10    14    15    40	 9 ;     CG2R61      OG301      CG331       HGA3
   10    14    15    41	 9 ;     CG2R61      OG301      CG331       HGA3
   10    14    15    42	 9 ;     CG2R61      OG301      CG331       HGA3
    1    16    17    26	 9 ;      CG321      CG321      CG301      CG331
    1    16    17    18	 9 ;      CG321      CG321      CG301      NG3P2
    1    16    17    25	 9 ;      CG321      CG321      CG301      CG321
   43    16    17    26	 9 ;       HGA2      CG321      CG301      CG331
   43    16    17    18	 9 ;       HGA2      CG321      CG301      NG3P2
   43    16    17    25	 9 ;       HGA2      CG321      CG301      CG321
   44    16    17    26	 9 ;       HGA2      CG321      CG301      CG331
   44    16    17    18	 9 ;       HGA2      CG321      CG301      NG3P2
   44    16    17    25	 9 ;       HGA2      CG321      CG301      CG321
   16    17    26    52	 9 ;      CG321      CG301      CG331       HGA3
   16    17    26    53	 9 ;      CG321      CG301      CG331       HGA3
   16    17    26    54	 9 ;      CG321      CG301      CG331       HGA3
   18    17    26    52	 9 ;      NG3P2      CG301      CG331       HGA3
   18    17    26    53	 9 ;      NG3P2      CG301      CG331       HGA3
   18    17    26    54	 9 ;      NG3P2      CG301      CG331       HGA3
   25    17    26    52	 9 ;      CG321      CG301      CG331       HGA3
   25    17    26    53	 9 ;      CG321      CG301      CG331       HGA3
   25    17    26    54	 9 ;      CG321      CG301      CG331       HGA3
   16    17    18    20	 9 ;      CG321      CG301      NG3P2       HGP2
   16    17    18    19	 9 ;      CG321      CG301      NG3P2      CG314
   16    17    18    45	 9 ;      CG321      CG301      NG3P2       HGP2
   26    17    18    20	 9 ;      CG331      CG301      NG3P2       HGP2
   26    17    18    19	 9 ;      CG331      CG301      NG3P2      CG314
   26    17    18    45	 9 ;      CG331      CG301      NG3P2       HGP2
   25    17    18    20	 9 ;      CG321      CG301      NG3P2       HGP2
   25    17    18    19	 9 ;      CG321      CG301      NG3P2      CG314
   25    17    18    45	 9 ;      CG321      CG301      NG3P2       HGP2
   16    17    25    23	 9 ;      CG321      CG301      CG321      CG2O1
   16    17    25    50	 9 ;      CG321      CG301      CG321       HGA2
   16    17    25    51	 9 ;      CG321      CG301      CG321       HGA2
   26    17    25    23	 9 ;      CG331      CG301      CG321      CG2O1
   26    17    25    50	 9 ;      CG331      CG301      CG321       HGA2
   26    17    25    51	 9 ;      CG331      CG301      CG321       HGA2
   18    17    25    23	 9 ;      NG3P2      CG301      CG321      CG2O1
   18    17    25    50	 9 ;      NG3P2      CG301      CG321       HGA2
   18    17    25    51	 9 ;      NG3P2      CG301      CG321       HGA2
   17    18    19    27	 9 ;      CG301      NG3P2      CG314      NG3P3
   17    18    19    21	 9 ;      CG301      NG3P2      CG314      NG2S0
   17    18    19    46	 9 ;      CG301      NG3P2      CG314       HGA1
   20    18    19    27	 9 ;       HGP2      NG3P2      CG314      NG3P3
   20    18    19    21	 9 ;       HGP2      NG3P2      CG314      NG2S0
   20    18    19    46	 9 ;       HGP2      NG3P2      CG314       HGA1
   45    18    19    27	 9 ;       HGP2      NG3P2      CG314      NG3P3
   45    18    19    21	 9 ;       HGP2      NG3P2      CG314      NG2S0
   45    18    19    46	 9 ;       HGP2      NG3P2      CG314       HGA1
   18    19    27    29	 9 ;      NG3P2      CG314      NG3P3       HGP2
   18    19    27    28	 9 ;      NG3P2      CG314      NG3P3       HGP2
   18    19    27    55	 9 ;      NG3P2      CG314      NG3P3       HGP2
   21    19    27    29	 9 ;      NG2S0      CG314      NG3P3       HGP2
   21    19    27    28	 9 ;      NG2S0      CG314      NG3P3       HGP2
   21    19    27    55	 9 ;      NG2S0      CG314      NG3P3       HGP2
   46    19    27    29	 9 ;       HGA1      CG314      NG3P3       HGP2
   46    19    27    28	 9 ;       HGA1      CG314      NG3P3       HGP2
   46    19    27    55	 9 ;       HGA1      CG314      NG3P3       HGP2
   18    19    21    23	 9 ;      NG3P2      CG314      NG2S0      CG2O1
   18    19    21    22	 9 ;      NG3P2      CG314      NG2S0      CG331
   27    19    21    23	 9 ;      NG3P3      CG314      NG2S0      CG2O1
   27    19    21    22	 9 ;      NG3P3      CG314      NG2S0      CG331
   46    19    21    23	 9 ;       HGA1      CG314      NG2S0      CG2O1
   46    19    21    22	 9 ;       HGA1      CG314      NG2S0      CG331
   19    21    23    25	 9 ;      CG314      NG2S0      CG2O1      CG321
   19    21    23    24	 9 ;      CG314      NG2S0      CG2O1      OG2D1
   22    21    23    25	 9 ;      CG331      NG2S0      CG2O1      CG321
   22    21    23    24	 9 ;      CG331      NG2S0      CG2O1      OG2D1
   19    21    22    47	 9 ;      CG314      NG2S0      CG331       HGA3
   19    21    22    48	 9 ;      CG314      NG2S0      CG331       HGA3
   19    21    22    49	 9 ;      CG314      NG2S0      CG331       HGA3
   23    21    22    47	 9 ;      CG2O1      NG2S0      CG331       HGA3
   23    21    22    48	 9 ;      CG2O1      NG2S0      CG331       HGA3
   23    21    22    49	 9 ;      CG2O1      NG2S0      CG331       HGA3
   21    23    25    17	 9 ;      NG2S0      CG2O1      CG321      CG301
   21    23    25    50	 9 ;      NG2S0      CG2O1      CG321       HGA2
   21    23    25    51	 9 ;      NG2S0      CG2O1      CG321       HGA2
   24    23    25    17	 9 ;      OG2D1      CG2O1      CG321      CG301
   24    23    25    50	 9 ;      OG2D1      CG2O1      CG321       HGA2
   24    23    25    51	 9 ;      OG2D1      CG2O1      CG321       HGA2

[ dihedrals ]
;	ai	  aj	ak	  al funct			  c0			c1			  c2			c3
   23    25    21    24	 2

