GROningen MAchine for Chemical Simulation
   55
    1LIG     C1    1  -1.801   0.464  -1.497
    1LIG     C2    2  -1.699   0.369  -1.557
    1LIG     C3    3  -1.569   0.360  -1.504
    1LIG     C4    4  -1.469   0.276  -1.560
    1LIG     C5    5  -1.501   0.209  -1.679
    1LIG     C6    6  -1.631   0.216  -1.732
    1LIG     C7    7  -1.729   0.292  -1.669
    1LIG     C8    8  -1.341   0.251  -1.490
    1LIG     C9    9  -1.263   0.140  -1.528
    1LIG    C10   10  -1.138   0.114  -1.470
    1LIG    C11   11  -1.089   0.201  -1.374
    1LIG    C12   12  -1.163   0.313  -1.335
    1LIG    C13   13  -1.288   0.337  -1.392
    1LIG     O1   14  -1.058   0.007  -1.501
    1LIG    C14   15  -1.031  -0.085  -1.395
    1LIG    C15   16  -1.896   0.396  -1.397
    1LIG    C16   17  -2.039   0.357  -1.448
    1LIG     N1   18  -2.059   0.215  -1.422
    1LIG    C17   19  -2.175   0.169  -1.389
    1LIG     HN   20  -1.981   0.151  -1.431
    1LIG     N2   21  -2.283   0.249  -1.357
    1LIG    C18   22  -2.410   0.189  -1.318
    1LIG    C19   23  -2.272   0.386  -1.346
    1LIG     O2   24  -2.365   0.459  -1.309
    1LIG    C20   25  -2.138   0.447  -1.374
    1LIG    C21   26  -2.056   0.375  -1.600
    1LIG     N3   27  -2.188   0.034  -1.391
    1LIG     H1   28  -2.182  -0.013  -1.302
    1LIG     H2   29  -2.274   0.008  -1.440
    1LIG    HC2   30  -1.748   0.544  -1.445
    1LIG    HC3   31  -1.860   0.507  -1.577
    1LIG     HC   32  -1.544   0.419  -1.417
    1LIG    HC1   33  -1.425   0.153  -1.731
    1LIG    HC4   34  -1.655   0.161  -1.822
    1LIG    HC5   35  -1.830   0.291  -1.708
    1LIG    HC6   36  -1.299   0.074  -1.605
    1LIG    HC7   37  -0.992   0.182  -1.329
    1LIG    HC8   38  -1.123   0.381  -1.261
    1LIG    HC9   39  -1.346   0.423  -1.361
    1LIG   HC10   40  -0.967  -0.164  -1.431
    1LIG   HC11   41  -1.125  -0.127  -1.359
    1LIG   HC12   42  -0.982  -0.032  -1.313
    1LIG   HC13   43  -1.848   0.305  -1.363
    1LIG   HC14   44  -1.908   0.462  -1.311
    1LIG    HN2   45  -2.082   0.201  -1.520
    1LIG   HC15   46  -2.145   0.166  -1.284
    1LIG   HC16   47  -2.482   0.267  -1.296
    1LIG   HC17   48  -2.395   0.127  -1.229
    1LIG   HC18   49  -2.447   0.126  -1.399
    1LIG   HC19   50  -2.153   0.536  -1.434
    1LIG   HC20   51  -2.093   0.476  -1.279
    1LIG   HC21   52  -2.154   0.339  -1.630
    1LIG   HC22   53  -2.046   0.481  -1.625
    1LIG   HC23   54  -1.979   0.318  -1.652
    1LIG    HN1   55  -2.112  -0.001  -1.447
   0.00000   0.00000   0.00000
