GROup of MAchos and Cynical Suckers
   75
    1LIG     C1    1  -1.500   0.851  -1.690
    1LIG     C2    2  -1.387   0.818  -1.615
    1LIG     C3    3  -1.340   0.687  -1.615
    1LIG     C4    4  -1.393   0.595  -1.708
    1LIG     C5    5  -1.499   0.631  -1.794
    1LIG     C6    6  -1.553   0.760  -1.782
    1LIG     C7    7  -1.556   0.532  -1.892
    1LIG     N1    8  -1.693   0.571  -1.944
    1LIG     H1    9  -1.730   0.647  -1.883
    1LIG     H2   10  -1.676   0.617  -2.034
    1LIG     C8   11  -1.794   0.459  -1.950
    1LIG     C9   12  -1.895   0.455  -1.828
    1LIG     N2   13  -2.040   0.449  -1.880
    1LIG     H3   14  -2.087   0.358  -1.869
    1LIG     H4   15  -2.100   0.517  -1.829
    1LIG     H5   16  -2.046   0.480  -1.979
    1LIG    C10   17  -1.874   0.329  -1.740
    1LIG    C11   18  -1.737   0.310  -1.682
    1LIG    C12   19  -1.699   0.378  -1.564
    1LIG    C13   20  -1.574   0.357  -1.507
    1LIG    C14   21  -1.485   0.267  -1.565
    1LIG    C15   22  -1.520   0.200  -1.682
    1LIG    C16   23  -1.645   0.221  -1.740
    1LIG    C17   24  -1.887   0.586  -1.745
    1LIG     O1   25  -1.926   0.695  -1.829
    1LIG     H6   26  -1.945   0.655  -1.917
    1LIG    C18   27  -1.250   0.634  -1.508
    1LIG     O2   28  -1.168   0.711  -1.459
    1LIG     N3   29  -1.256   0.499  -1.481
    1LIG     H7   30  -1.319   0.438  -1.530
    1LIG    C19   31  -1.161   0.430  -1.395
    1LIG    C20   32  -1.186   0.469  -1.249
    1LIG    C21   33  -1.169   0.280  -1.421
    1LIG    C22   34  -1.210   0.195  -1.316
    1LIG    C23   35  -1.221   0.057  -1.336
    1LIG    C24   36  -1.191   0.003  -1.460
    1LIG      F   37  -1.203  -0.129  -1.479
    1LIG    C25   38  -1.149   0.084  -1.565
    1LIG    C26   39  -1.138   0.222  -1.545
    1LIG     N4   40  -1.569   0.975  -1.664
    1LIG    C27   41  -1.561   1.073  -1.777
    1LIG      S   42  -1.727   0.955  -1.599
    1LIG     O3   43  -1.720   0.843  -1.507
    1LIG     O4   44  -1.819   0.956  -1.711
    1LIG    C28   45  -1.748   1.104  -1.503
    1LIG     HC   46  -1.335   0.894  -1.558
    1LIG    HC1   47  -1.352   0.495  -1.713
    1LIG    HC2   48  -1.635   0.790  -1.845
    1LIG    HC3   49  -1.487   0.524  -1.976
    1LIG    HC4   50  -1.564   0.435  -1.843
    1LIG    HC5   51  -1.853   0.471  -2.041
    1LIG    HC6   52  -1.741   0.364  -1.954
    1LIG    HC7   53  -1.896   0.242  -1.802
    1LIG    HC8   54  -1.946   0.331  -1.658
    1LIG    HC9   55  -1.768   0.448  -1.519
    1LIG   HC10   56  -1.547   0.409  -1.416
    1LIG   HC11   57  -1.388   0.250  -1.520
    1LIG   HC12   58  -1.450   0.132  -1.728
    1LIG   HC13   59  -1.672   0.168  -1.829
    1LIG   HC14   60  -1.785   0.601  -1.710
    1LIG   HC15   61  -1.954   0.579  -1.659
    1LIG   HC16   62  -1.060   0.463  -1.422
    1LIG   HC17   63  -1.173   0.577  -1.238
    1LIG   HC18   64  -1.287   0.441  -1.221
    1LIG   HC19   65  -1.115   0.417  -1.185
    1LIG   HC20   66  -1.232   0.237  -1.219
    1LIG   HC21   67  -1.253  -0.007  -1.255
    1LIG   HC22   68  -1.126   0.041  -1.661
    1LIG   HC23   69  -1.104   0.285  -1.626
    1LIG   HC24   70  -1.616   1.164  -1.751
    1LIG   HC25   71  -1.457   1.098  -1.796
    1LIG   HC26   72  -1.605   1.029  -1.867
    1LIG   HC27   73  -1.846   1.104  -1.456
    1LIG   HC28   74  -1.670   1.109  -1.427
    1LIG   HC29   75  -1.740   1.191  -1.569
   0.00000   0.00000   0.00000
