; Created by cgenff_charmm2gmx.py

[ moleculetype ]
; Name			   nrexcl
LIG				 3

[ atoms ]
;	 nr		  type	resnr residue  atom   cgnr	   charge		mass  typeB    chargeB		massB
; residue	 1 LIG rtp LIG q	qsum
     1     CG2R61      1    LIG     C1      1      0.141     12.011   ;
     2     CG2R61      1    LIG     C2      2     -0.064     12.011   ;
     3     CG2R61      1    LIG     C3      3     -0.098     12.011   ;
     4     CG2R61      1    LIG     C4      4     -0.063     12.011   ;
     5     CG2R61      1    LIG     C5      5      0.039     12.011   ;
     6     CG2R61      1    LIG     C6      6     -0.123     12.011   ;
     7      CG324      1    LIG     C7      7      0.171     12.011   ;
     8      NG3P2      1    LIG     N1      8     -0.456     14.007   ;
     9       HGP2      1    LIG     H1      9      0.352      1.008   ;
    10       HGP2      1    LIG     H2     10      0.352      1.008   ;
    11      CG324      1    LIG     C8     11     -0.029     12.011   ;
    12      CG301      1    LIG     C9     12      0.788     12.011   ;
    13      NG3P3      1    LIG     N2     13     -0.655     14.007   ;
    14       HGP2      1    LIG     H3     14      0.348      1.008   ;
    15       HGP2      1    LIG     H4     15      0.348      1.008   ;
    16       HGP2      1    LIG     H5     16      0.348      1.008   ;
    17      CG321      1    LIG    C10     17     -0.085     12.011   ;
    18     CG2R61      1    LIG    C11     18     -0.087     12.011   ;
    19     CG2R61      1    LIG    C12     19     -0.123     12.011   ;
    20     CG2R61      1    LIG    C13     20     -0.112     12.011   ;
    21     CG2R61      1    LIG    C14     21     -0.116     12.011   ;
    22     CG2R61      1    LIG    C15     22     -0.112     12.011   ;
    23     CG2R61      1    LIG    C16     23     -0.123     12.011   ;
    24      CG321      1    LIG    C17     24     -0.009     12.011   ;
    25      OG311      1    LIG     O1     25     -0.554     15.999   ;
    26       HGP1      1    LIG     H6     26      0.417      1.008   ;
    27      CG2O1      1    LIG    C18     27      0.320     12.011   ;
    28      OG2D1      1    LIG     O2     28     -0.463     15.999   ;
    29      NG2S1      1    LIG     N3     29     -0.366     14.007   ;
    30       HGP1      1    LIG     H7     30      0.314      1.008   ;
    31      CG311      1    LIG    C19     31      0.138     12.011   ;
    32      CG331      1    LIG    C20     32     -0.265     12.011   ;
    33     CG2R61      1    LIG    C21     33     -0.081     12.011   ;
    34     CG2R61      1    LIG    C22     34     -0.121     12.011   ;
    35     CG2R61      1    LIG    C23     35     -0.105     12.011   ;
    36     CG2R66      1    LIG    C24     36      0.107     12.011   ;
    37       FGR1      1    LIG      F     37     -0.211     18.998   ;
    38     CG2R61      1    LIG    C25     38     -0.105     12.011   ;
    39     CG2R61      1    LIG    C26     39     -0.121     12.011   ;
    40      NG301      1    LIG     N4     40     -0.228     14.007   ;
    41      CG331      1    LIG    C27     41     -0.103     12.011   ;
    42      SG3O2      1    LIG      S     42      0.397     32.060   ;
    43      OG2P1      1    LIG     O3     43     -0.388     15.999   ;
    44      OG2P1      1    LIG     O4     44     -0.388     15.999   ;
    45      CG331      1    LIG    C28     45      0.036     12.011   ;
    46      HGR61      1    LIG     HC     46      0.116      1.008   ;
    47      HGR61      1    LIG    HC1     47      0.116      1.008   ;
    48      HGR61      1    LIG    HC2     48      0.116      1.008   ;
    49       HGA2      1    LIG    HC3     49      0.090      1.008   ;
    50       HGA2      1    LIG    HC4     50      0.090      1.008   ;
    51       HGA2      1    LIG    HC5     51      0.090      1.008   ;
    52       HGA2      1    LIG    HC6     52      0.090      1.008   ;
    53       HGA2      1    LIG    HC7     53      0.090      1.008   ;
    54       HGA2      1    LIG    HC8     54      0.090      1.008   ;
    55      HGR61      1    LIG    HC9     55      0.116      1.008   ;
    56      HGR61      1    LIG   HC10     56      0.116      1.008   ;
    57      HGR61      1    LIG   HC11     57      0.116      1.008   ;
    58      HGR61      1    LIG   HC12     58      0.116      1.008   ;
    59      HGR61      1    LIG   HC13     59      0.116      1.008   ;
    60       HGA2      1    LIG   HC14     60      0.090      1.008   ;
    61       HGA2      1    LIG   HC15     61      0.090      1.008   ;
    62       HGA1      1    LIG   HC16     62      0.090      1.008   ;
    63       HGA3      1    LIG   HC17     63      0.090      1.008   ;
    64       HGA3      1    LIG   HC18     64      0.090      1.008   ;
    65       HGA3      1    LIG   HC19     65      0.090      1.008   ;
    66      HGR61      1    LIG   HC20     66      0.116      1.008   ;
    67      HGR62      1    LIG   HC21     67      0.179      1.008   ;
    68      HGR62      1    LIG   HC22     68      0.179      1.008   ;
    69      HGR61      1    LIG   HC23     69      0.116      1.008   ;
    70       HGA3      1    LIG   HC24     70      0.090      1.008   ;
    71       HGA3      1    LIG   HC25     71      0.090      1.008   ;
    72       HGA3      1    LIG   HC26     72      0.090      1.008   ;
    73       HGA3      1    LIG   HC27     73      0.090      1.008   ;
    74       HGA3      1    LIG   HC28     74      0.090      1.008   ;
    75       HGA3      1    LIG   HC29     75      0.090      1.008   ;

[ bonds ]
;	ai	  aj funct			  c0			c1			  c2			c3
    1     2	 1 ;      CG2R61     CG2R61
    1     6	 1 ;      CG2R61     CG2R61
    1    40	 1 ;      CG2R61      NG301
    2     3	 1 ;      CG2R61     CG2R61
    2    46	 1 ;      CG2R61      HGR61
    3    27	 1 ;      CG2R61      CG2O1
    3     4	 1 ;      CG2R61     CG2R61
    4     5	 1 ;      CG2R61     CG2R61
    4    47	 1 ;      CG2R61      HGR61
    5     7	 1 ;      CG2R61      CG324
    5     6	 1 ;      CG2R61     CG2R61
    6    48	 1 ;      CG2R61      HGR61
    7     8	 1 ;       CG324      NG3P2
    7    49	 1 ;       CG324       HGA2
    7    50	 1 ;       CG324       HGA2
    8    10	 1 ;       NG3P2       HGP2
    8     9	 1 ;       NG3P2       HGP2
    8    11	 1 ;       NG3P2      CG324
   11    12	 1 ;       CG324      CG301
   11    51	 1 ;       CG324       HGA2
   11    52	 1 ;       CG324       HGA2
   12    24	 1 ;       CG301      CG321
   12    17	 1 ;       CG301      CG321
   12    13	 1 ;       CG301      NG3P3
   13    16	 1 ;       NG3P3       HGP2
   13    14	 1 ;       NG3P3       HGP2
   13    15	 1 ;       NG3P3       HGP2
   17    18	 1 ;       CG321     CG2R61
   17    53	 1 ;       CG321       HGA2
   17    54	 1 ;       CG321       HGA2
   18    23	 1 ;      CG2R61     CG2R61
   18    19	 1 ;      CG2R61     CG2R61
   19    20	 1 ;      CG2R61     CG2R61
   19    55	 1 ;      CG2R61      HGR61
   20    21	 1 ;      CG2R61     CG2R61
   20    56	 1 ;      CG2R61      HGR61
   21    22	 1 ;      CG2R61     CG2R61
   21    57	 1 ;      CG2R61      HGR61
   22    23	 1 ;      CG2R61     CG2R61
   22    58	 1 ;      CG2R61      HGR61
   23    59	 1 ;      CG2R61      HGR61
   24    25	 1 ;       CG321      OG311
   24    60	 1 ;       CG321       HGA2
   24    61	 1 ;       CG321       HGA2
   25    26	 1 ;       OG311       HGP1
   27    28	 1 ;       CG2O1      OG2D1
   27    29	 1 ;       CG2O1      NG2S1
   29    31	 1 ;       NG2S1      CG311
   29    30	 1 ;       NG2S1       HGP1
   31    33	 1 ;       CG311     CG2R61
   31    32	 1 ;       CG311      CG331
   31    62	 1 ;       CG311       HGA1
   32    63	 1 ;       CG331       HGA3
   32    64	 1 ;       CG331       HGA3
   32    65	 1 ;       CG331       HGA3
   33    39	 1 ;      CG2R61     CG2R61
   33    34	 1 ;      CG2R61     CG2R61
   34    35	 1 ;      CG2R61     CG2R61
   34    66	 1 ;      CG2R61      HGR61
   35    36	 1 ;      CG2R61     CG2R66
   35    67	 1 ;      CG2R61      HGR62
   36    38	 1 ;      CG2R66     CG2R61
   36    37	 1 ;      CG2R66       FGR1
   38    39	 1 ;      CG2R61     CG2R61
   38    68	 1 ;      CG2R61      HGR62
   39    69	 1 ;      CG2R61      HGR61
   40    41	 1 ;       NG301      CG331
   40    42	 1 ;       NG301      SG3O2
   41    70	 1 ;       CG331       HGA3
   41    71	 1 ;       CG331       HGA3
   41    72	 1 ;       CG331       HGA3
   42    44	 1 ;       SG3O2      OG2P1
   42    45	 1 ;       SG3O2      CG331
   42    43	 1 ;       SG3O2      OG2P1
   45    73	 1 ;       CG331       HGA3
   45    74	 1 ;       CG331       HGA3
   45    75	 1 ;       CG331       HGA3

[ pairs ]
;	ai	  aj funct			  c0			c1			  c2			c3
    1    27	 1
    1     4	 1
    1     7	 1
    1    70	 1
    1    71	 1
    1    72	 1
    1    44	 1
    1    45	 1
    1    43	 1
    2     5	 1
    2    48	 1
    2    41	 1
    2    42	 1
    2    28	 1
    2    29	 1
    2    47	 1
    3     6	 1
    3    40	 1
    3     7	 1
    3    31	 1
    3    30	 1
    4    46	 1
    4    28	 1
    4    29	 1
    4     8	 1
    4    49	 1
    4    50	 1
    4    48	 1
    5    40	 1
    5    27	 1
    5    10	 1
    5     9	 1
    5    11	 1
    6    46	 1
    6    41	 1
    6    42	 1
    6    47	 1
    6     8	 1
    6    49	 1
    6    50	 1
    7    47	 1
    7    48	 1
    7    12	 1
    7    51	 1
    7    52	 1
    8    24	 1
    8    17	 1
    8    13	 1
    9    49	 1
    9    50	 1
    9    12	 1
    9    51	 1
    9    52	 1
   10    49	 1
   10    50	 1
   10    12	 1
   10    51	 1
   10    52	 1
   11    49	 1
   11    50	 1
   11    25	 1
   11    60	 1
   11    61	 1
   11    18	 1
   11    53	 1
   11    54	 1
   11    16	 1
   11    14	 1
   11    15	 1
   12    23	 1
   12    19	 1
   12    26	 1
   13    51	 1
   13    52	 1
   13    25	 1
   13    60	 1
   13    61	 1
   13    18	 1
   13    53	 1
   13    54	 1
   14    24	 1
   14    17	 1
   15    24	 1
   15    17	 1
   16    24	 1
   16    17	 1
   17    51	 1
   17    52	 1
   17    25	 1
   17    60	 1
   17    61	 1
   17    22	 1
   17    59	 1
   17    20	 1
   17    55	 1
   18    24	 1
   18    21	 1
   18    56	 1
   18    58	 1
   19    53	 1
   19    54	 1
   19    22	 1
   19    59	 1
   19    57	 1
   20    23	 1
   20    58	 1
   21    55	 1
   21    59	 1
   22    56	 1
   23    53	 1
   23    54	 1
   23    55	 1
   23    57	 1
   24    51	 1
   24    52	 1
   24    53	 1
   24    54	 1
   26    60	 1
   26    61	 1
   27    46	 1
   27    47	 1
   27    33	 1
   27    32	 1
   27    62	 1
   28    31	 1
   28    30	 1
   29    39	 1
   29    34	 1
   29    63	 1
   29    64	 1
   29    65	 1
   30    33	 1
   30    32	 1
   30    62	 1
   31    38	 1
   31    69	 1
   31    35	 1
   31    66	 1
   32    39	 1
   32    34	 1
   33    63	 1
   33    64	 1
   33    65	 1
   33    36	 1
   33    67	 1
   33    68	 1
   34    62	 1
   34    38	 1
   34    69	 1
   34    37	 1
   35    39	 1
   35    68	 1
   36    66	 1
   36    69	 1
   37    67	 1
   37    39	 1
   37    68	 1
   38    67	 1
   39    62	 1
   39    66	 1
   40    46	 1
   40    48	 1
   40    73	 1
   40    74	 1
   40    75	 1
   41    44	 1
   41    45	 1
   41    43	 1
   42    70	 1
   42    71	 1
   42    72	 1
   43    73	 1
   43    74	 1
   43    75	 1
   44    73	 1
   44    74	 1
   44    75	 1
   55    56	 1
   56    57	 1
   57    58	 1
   58    59	 1
   62    63	 1
   62    64	 1
   62    65	 1
   66    67	 1
   68    69	 1

[ angles ]
;	ai	  aj	ak funct			c0			  c1			c2			  c3
    2     1     6	5 ;     CG2R61     CG2R61     CG2R61
    2     1    40	5 ;     CG2R61     CG2R61      NG301
    6     1    40	5 ;     CG2R61     CG2R61      NG301
    3     2     1	5 ;     CG2R61     CG2R61     CG2R61
    3     2    46	5 ;     CG2R61     CG2R61      HGR61
    1     2    46	5 ;     CG2R61     CG2R61      HGR61
   27     3     4	5 ;      CG2O1     CG2R61     CG2R61
   27     3     2	5 ;      CG2O1     CG2R61     CG2R61
    4     3     2	5 ;     CG2R61     CG2R61     CG2R61
    3     4     5	5 ;     CG2R61     CG2R61     CG2R61
    3     4    47	5 ;     CG2R61     CG2R61      HGR61
    5     4    47	5 ;     CG2R61     CG2R61      HGR61
    4     5     7	5 ;     CG2R61     CG2R61      CG324
    4     5     6	5 ;     CG2R61     CG2R61     CG2R61
    7     5     6	5 ;      CG324     CG2R61     CG2R61
    5     6     1	5 ;     CG2R61     CG2R61     CG2R61
    5     6    48	5 ;     CG2R61     CG2R61      HGR61
    1     6    48	5 ;     CG2R61     CG2R61      HGR61
    5     7     8	5 ;     CG2R61      CG324      NG3P2
    5     7    49	5 ;     CG2R61      CG324       HGA2
    5     7    50	5 ;     CG2R61      CG324       HGA2
    8     7    49	5 ;      NG3P2      CG324       HGA2
    8     7    50	5 ;      NG3P2      CG324       HGA2
   49     7    50	5 ;       HGA2      CG324       HGA2
    7     8    10	5 ;      CG324      NG3P2       HGP2
    7     8     9	5 ;      CG324      NG3P2       HGP2
    7     8    11	5 ;      CG324      NG3P2      CG324
   10     8     9	5 ;       HGP2      NG3P2       HGP2
   10     8    11	5 ;       HGP2      NG3P2      CG324
    9     8    11	5 ;       HGP2      NG3P2      CG324
    8    11    12	5 ;      NG3P2      CG324      CG301
    8    11    51	5 ;      NG3P2      CG324       HGA2
    8    11    52	5 ;      NG3P2      CG324       HGA2
   12    11    51	5 ;      CG301      CG324       HGA2
   12    11    52	5 ;      CG301      CG324       HGA2
   51    11    52	5 ;       HGA2      CG324       HGA2
   11    12    24	5 ;      CG324      CG301      CG321
   11    12    17	5 ;      CG324      CG301      CG321
   11    12    13	5 ;      CG324      CG301      NG3P3
   24    12    17	5 ;      CG321      CG301      CG321
   24    12    13	5 ;      CG321      CG301      NG3P3
   17    12    13	5 ;      CG321      CG301      NG3P3
   12    13    16	5 ;      CG301      NG3P3       HGP2
   12    13    14	5 ;      CG301      NG3P3       HGP2
   12    13    15	5 ;      CG301      NG3P3       HGP2
   16    13    14	5 ;       HGP2      NG3P3       HGP2
   16    13    15	5 ;       HGP2      NG3P3       HGP2
   14    13    15	5 ;       HGP2      NG3P3       HGP2
   18    17    12	5 ;     CG2R61      CG321      CG301
   18    17    53	5 ;     CG2R61      CG321       HGA2
   18    17    54	5 ;     CG2R61      CG321       HGA2
   12    17    53	5 ;      CG301      CG321       HGA2
   12    17    54	5 ;      CG301      CG321       HGA2
   53    17    54	5 ;       HGA2      CG321       HGA2
   23    18    19	5 ;     CG2R61     CG2R61     CG2R61
   23    18    17	5 ;     CG2R61     CG2R61      CG321
   19    18    17	5 ;     CG2R61     CG2R61      CG321
   20    19    18	5 ;     CG2R61     CG2R61     CG2R61
   20    19    55	5 ;     CG2R61     CG2R61      HGR61
   18    19    55	5 ;     CG2R61     CG2R61      HGR61
   21    20    19	5 ;     CG2R61     CG2R61     CG2R61
   21    20    56	5 ;     CG2R61     CG2R61      HGR61
   19    20    56	5 ;     CG2R61     CG2R61      HGR61
   22    21    20	5 ;     CG2R61     CG2R61     CG2R61
   22    21    57	5 ;     CG2R61     CG2R61      HGR61
   20    21    57	5 ;     CG2R61     CG2R61      HGR61
   21    22    23	5 ;     CG2R61     CG2R61     CG2R61
   21    22    58	5 ;     CG2R61     CG2R61      HGR61
   23    22    58	5 ;     CG2R61     CG2R61      HGR61
   22    23    18	5 ;     CG2R61     CG2R61     CG2R61
   22    23    59	5 ;     CG2R61     CG2R61      HGR61
   18    23    59	5 ;     CG2R61     CG2R61      HGR61
   25    24    12	5 ;      OG311      CG321      CG301
   25    24    60	5 ;      OG311      CG321       HGA2
   25    24    61	5 ;      OG311      CG321       HGA2
   12    24    60	5 ;      CG301      CG321       HGA2
   12    24    61	5 ;      CG301      CG321       HGA2
   60    24    61	5 ;       HGA2      CG321       HGA2
   26    25    24	5 ;       HGP1      OG311      CG321
   28    27     3	5 ;      OG2D1      CG2O1     CG2R61
   28    27    29	5 ;      OG2D1      CG2O1      NG2S1
    3    27    29	5 ;     CG2R61      CG2O1      NG2S1
   27    29    31	5 ;      CG2O1      NG2S1      CG311
   27    29    30	5 ;      CG2O1      NG2S1       HGP1
   31    29    30	5 ;      CG311      NG2S1       HGP1
   29    31    33	5 ;      NG2S1      CG311     CG2R61
   29    31    32	5 ;      NG2S1      CG311      CG331
   29    31    62	5 ;      NG2S1      CG311       HGA1
   33    31    32	5 ;     CG2R61      CG311      CG331
   33    31    62	5 ;     CG2R61      CG311       HGA1
   32    31    62	5 ;      CG331      CG311       HGA1
   31    32    63	5 ;      CG311      CG331       HGA3
   31    32    64	5 ;      CG311      CG331       HGA3
   31    32    65	5 ;      CG311      CG331       HGA3
   63    32    64	5 ;       HGA3      CG331       HGA3
   63    32    65	5 ;       HGA3      CG331       HGA3
   64    32    65	5 ;       HGA3      CG331       HGA3
   39    33    31	5 ;     CG2R61     CG2R61      CG311
   39    33    34	5 ;     CG2R61     CG2R61     CG2R61
   31    33    34	5 ;      CG311     CG2R61     CG2R61
   33    34    35	5 ;     CG2R61     CG2R61     CG2R61
   33    34    66	5 ;     CG2R61     CG2R61      HGR61
   35    34    66	5 ;     CG2R61     CG2R61      HGR61
   36    35    34	5 ;     CG2R66     CG2R61     CG2R61
   36    35    67	5 ;     CG2R66     CG2R61      HGR62
   34    35    67	5 ;     CG2R61     CG2R61      HGR62
   38    36    37	5 ;     CG2R61     CG2R66       FGR1
   38    36    35	5 ;     CG2R61     CG2R66     CG2R61
   37    36    35	5 ;       FGR1     CG2R66     CG2R61
   39    38    36	5 ;     CG2R61     CG2R61     CG2R66
   39    38    68	5 ;     CG2R61     CG2R61      HGR62
   36    38    68	5 ;     CG2R66     CG2R61      HGR62
   38    39    33	5 ;     CG2R61     CG2R61     CG2R61
   38    39    69	5 ;     CG2R61     CG2R61      HGR61
   33    39    69	5 ;     CG2R61     CG2R61      HGR61
   41    40     1	5 ;      CG331      NG301     CG2R61
   41    40    42	5 ;      CG331      NG301      SG3O2
    1    40    42	5 ;     CG2R61      NG301      SG3O2
   40    41    70	5 ;      NG301      CG331       HGA3
   40    41    71	5 ;      NG301      CG331       HGA3
   40    41    72	5 ;      NG301      CG331       HGA3
   70    41    71	5 ;       HGA3      CG331       HGA3
   70    41    72	5 ;       HGA3      CG331       HGA3
   71    41    72	5 ;       HGA3      CG331       HGA3
   40    42    44	5 ;      NG301      SG3O2      OG2P1
   40    42    45	5 ;      NG301      SG3O2      CG331
   40    42    43	5 ;      NG301      SG3O2      OG2P1
   44    42    45	5 ;      OG2P1      SG3O2      CG331
   44    42    43	5 ;      OG2P1      SG3O2      OG2P1
   45    42    43	5 ;      CG331      SG3O2      OG2P1
   42    45    73	5 ;      SG3O2      CG331       HGA3
   42    45    74	5 ;      SG3O2      CG331       HGA3
   42    45    75	5 ;      SG3O2      CG331       HGA3
   73    45    74	5 ;       HGA3      CG331       HGA3
   73    45    75	5 ;       HGA3      CG331       HGA3
   74    45    75	5 ;       HGA3      CG331       HGA3

[ dihedrals ]
;	ai	  aj	ak	  al funct			  c0			c1			  c2			c3			  c4			c5
    6     1     2     3	 9 ;     CG2R61     CG2R61     CG2R61     CG2R61
    6     1     2    46	 9 ;     CG2R61     CG2R61     CG2R61      HGR61
   40     1     2     3	 9 ;      NG301     CG2R61     CG2R61     CG2R61
   40     1     2    46	 9 ;      NG301     CG2R61     CG2R61      HGR61
    2     1     6     5	 9 ;     CG2R61     CG2R61     CG2R61     CG2R61
    2     1     6    48	 9 ;     CG2R61     CG2R61     CG2R61      HGR61
   40     1     6     5	 9 ;      NG301     CG2R61     CG2R61     CG2R61
   40     1     6    48	 9 ;      NG301     CG2R61     CG2R61      HGR61
    2     1    40    41	 9 ;     CG2R61     CG2R61      NG301      CG331
    2     1    40    42	 9 ;     CG2R61     CG2R61      NG301      SG3O2
    6     1    40    41	 9 ;     CG2R61     CG2R61      NG301      CG331
    6     1    40    42	 9 ;     CG2R61     CG2R61      NG301      SG3O2
    1     2     3    27	 9 ;     CG2R61     CG2R61     CG2R61      CG2O1
    1     2     3     4	 9 ;     CG2R61     CG2R61     CG2R61     CG2R61
   46     2     3    27	 9 ;      HGR61     CG2R61     CG2R61      CG2O1
   46     2     3     4	 9 ;      HGR61     CG2R61     CG2R61     CG2R61
    4     3    27    28	 9 ;     CG2R61     CG2R61      CG2O1      OG2D1
    4     3    27    29	 9 ;     CG2R61     CG2R61      CG2O1      NG2S1
    2     3    27    28	 9 ;     CG2R61     CG2R61      CG2O1      OG2D1
    2     3    27    29	 9 ;     CG2R61     CG2R61      CG2O1      NG2S1
   27     3     4     5	 9 ;      CG2O1     CG2R61     CG2R61     CG2R61
   27     3     4    47	 9 ;      CG2O1     CG2R61     CG2R61      HGR61
    2     3     4     5	 9 ;     CG2R61     CG2R61     CG2R61     CG2R61
    2     3     4    47	 9 ;     CG2R61     CG2R61     CG2R61      HGR61
    3     4     5     7	 9 ;     CG2R61     CG2R61     CG2R61      CG324
    3     4     5     6	 9 ;     CG2R61     CG2R61     CG2R61     CG2R61
   47     4     5     7	 9 ;      HGR61     CG2R61     CG2R61      CG324
   47     4     5     6	 9 ;      HGR61     CG2R61     CG2R61     CG2R61
    4     5     7     8	 9 ;     CG2R61     CG2R61      CG324      NG3P2
    4     5     7    49	 9 ;     CG2R61     CG2R61      CG324       HGA2
    4     5     7    50	 9 ;     CG2R61     CG2R61      CG324       HGA2
    6     5     7     8	 9 ;     CG2R61     CG2R61      CG324      NG3P2
    6     5     7    49	 9 ;     CG2R61     CG2R61      CG324       HGA2
    6     5     7    50	 9 ;     CG2R61     CG2R61      CG324       HGA2
    4     5     6     1	 9 ;     CG2R61     CG2R61     CG2R61     CG2R61
    4     5     6    48	 9 ;     CG2R61     CG2R61     CG2R61      HGR61
    7     5     6     1	 9 ;      CG324     CG2R61     CG2R61     CG2R61
    7     5     6    48	 9 ;      CG324     CG2R61     CG2R61      HGR61
    5     7     8    10	 9 ;     CG2R61      CG324      NG3P2       HGP2
    5     7     8     9	 9 ;     CG2R61      CG324      NG3P2       HGP2
    5     7     8    11	 9 ;     CG2R61      CG324      NG3P2      CG324
   49     7     8    10	 9 ;       HGA2      CG324      NG3P2       HGP2
   49     7     8     9	 9 ;       HGA2      CG324      NG3P2       HGP2
   49     7     8    11	 9 ;       HGA2      CG324      NG3P2      CG324
   50     7     8    10	 9 ;       HGA2      CG324      NG3P2       HGP2
   50     7     8     9	 9 ;       HGA2      CG324      NG3P2       HGP2
   50     7     8    11	 9 ;       HGA2      CG324      NG3P2      CG324
    7     8    11    12	 9 ;      CG324      NG3P2      CG324      CG301
    7     8    11    51	 9 ;      CG324      NG3P2      CG324       HGA2
    7     8    11    52	 9 ;      CG324      NG3P2      CG324       HGA2
   10     8    11    12	 9 ;       HGP2      NG3P2      CG324      CG301
   10     8    11    51	 9 ;       HGP2      NG3P2      CG324       HGA2
   10     8    11    52	 9 ;       HGP2      NG3P2      CG324       HGA2
    9     8    11    12	 9 ;       HGP2      NG3P2      CG324      CG301
    9     8    11    51	 9 ;       HGP2      NG3P2      CG324       HGA2
    9     8    11    52	 9 ;       HGP2      NG3P2      CG324       HGA2
    8    11    12    24	 9 ;      NG3P2      CG324      CG301      CG321
    8    11    12    17	 9 ;      NG3P2      CG324      CG301      CG321
    8    11    12    13	 9 ;      NG3P2      CG324      CG301      NG3P3
   51    11    12    24	 9 ;       HGA2      CG324      CG301      CG321
   51    11    12    17	 9 ;       HGA2      CG324      CG301      CG321
   51    11    12    13	 9 ;       HGA2      CG324      CG301      NG3P3
   52    11    12    24	 9 ;       HGA2      CG324      CG301      CG321
   52    11    12    17	 9 ;       HGA2      CG324      CG301      CG321
   52    11    12    13	 9 ;       HGA2      CG324      CG301      NG3P3
   11    12    24    25	 9 ;      CG324      CG301      CG321      OG311
   11    12    24    60	 9 ;      CG324      CG301      CG321       HGA2
   11    12    24    61	 9 ;      CG324      CG301      CG321       HGA2
   17    12    24    25	 9 ;      CG321      CG301      CG321      OG311
   17    12    24    60	 9 ;      CG321      CG301      CG321       HGA2
   17    12    24    61	 9 ;      CG321      CG301      CG321       HGA2
   13    12    24    25	 9 ;      NG3P3      CG301      CG321      OG311
   13    12    24    60	 9 ;      NG3P3      CG301      CG321       HGA2
   13    12    24    61	 9 ;      NG3P3      CG301      CG321       HGA2
   11    12    17    18	 9 ;      CG324      CG301      CG321     CG2R61
   11    12    17    53	 9 ;      CG324      CG301      CG321       HGA2
   11    12    17    54	 9 ;      CG324      CG301      CG321       HGA2
   24    12    17    18	 9 ;      CG321      CG301      CG321     CG2R61
   24    12    17    53	 9 ;      CG321      CG301      CG321       HGA2
   24    12    17    54	 9 ;      CG321      CG301      CG321       HGA2
   13    12    17    18	 9 ;      NG3P3      CG301      CG321     CG2R61
   13    12    17    53	 9 ;      NG3P3      CG301      CG321       HGA2
   13    12    17    54	 9 ;      NG3P3      CG301      CG321       HGA2
   11    12    13    16	 9 ;      CG324      CG301      NG3P3       HGP2
   11    12    13    14	 9 ;      CG324      CG301      NG3P3       HGP2
   11    12    13    15	 9 ;      CG324      CG301      NG3P3       HGP2
   24    12    13    16	 9 ;      CG321      CG301      NG3P3       HGP2
   24    12    13    14	 9 ;      CG321      CG301      NG3P3       HGP2
   24    12    13    15	 9 ;      CG321      CG301      NG3P3       HGP2
   17    12    13    16	 9 ;      CG321      CG301      NG3P3       HGP2
   17    12    13    14	 9 ;      CG321      CG301      NG3P3       HGP2
   17    12    13    15	 9 ;      CG321      CG301      NG3P3       HGP2
   12    17    18    23	 9 ;      CG301      CG321     CG2R61     CG2R61
   12    17    18    19	 9 ;      CG301      CG321     CG2R61     CG2R61
   53    17    18    23	 9 ;       HGA2      CG321     CG2R61     CG2R61
   53    17    18    19	 9 ;       HGA2      CG321     CG2R61     CG2R61
   54    17    18    23	 9 ;       HGA2      CG321     CG2R61     CG2R61
   54    17    18    19	 9 ;       HGA2      CG321     CG2R61     CG2R61
   19    18    23    22	 9 ;     CG2R61     CG2R61     CG2R61     CG2R61
   19    18    23    59	 9 ;     CG2R61     CG2R61     CG2R61      HGR61
   17    18    23    22	 9 ;      CG321     CG2R61     CG2R61     CG2R61
   17    18    23    59	 9 ;      CG321     CG2R61     CG2R61      HGR61
   23    18    19    20	 9 ;     CG2R61     CG2R61     CG2R61     CG2R61
   23    18    19    55	 9 ;     CG2R61     CG2R61     CG2R61      HGR61
   17    18    19    20	 9 ;      CG321     CG2R61     CG2R61     CG2R61
   17    18    19    55	 9 ;      CG321     CG2R61     CG2R61      HGR61
   18    19    20    21	 9 ;     CG2R61     CG2R61     CG2R61     CG2R61
   18    19    20    56	 9 ;     CG2R61     CG2R61     CG2R61      HGR61
   55    19    20    21	 9 ;      HGR61     CG2R61     CG2R61     CG2R61
   55    19    20    56	 9 ;      HGR61     CG2R61     CG2R61      HGR61
   19    20    21    22	 9 ;     CG2R61     CG2R61     CG2R61     CG2R61
   19    20    21    57	 9 ;     CG2R61     CG2R61     CG2R61      HGR61
   56    20    21    22	 9 ;      HGR61     CG2R61     CG2R61     CG2R61
   56    20    21    57	 9 ;      HGR61     CG2R61     CG2R61      HGR61
   20    21    22    23	 9 ;     CG2R61     CG2R61     CG2R61     CG2R61
   20    21    22    58	 9 ;     CG2R61     CG2R61     CG2R61      HGR61
   57    21    22    23	 9 ;      HGR61     CG2R61     CG2R61     CG2R61
   57    21    22    58	 9 ;      HGR61     CG2R61     CG2R61      HGR61
   21    22    23    18	 9 ;     CG2R61     CG2R61     CG2R61     CG2R61
   21    22    23    59	 9 ;     CG2R61     CG2R61     CG2R61      HGR61
   58    22    23    18	 9 ;      HGR61     CG2R61     CG2R61     CG2R61
   58    22    23    59	 9 ;      HGR61     CG2R61     CG2R61      HGR61
   12    24    25    26	 9 ;      CG301      CG321      OG311       HGP1
   60    24    25    26	 9 ;       HGA2      CG321      OG311       HGP1
   61    24    25    26	 9 ;       HGA2      CG321      OG311       HGP1
   28    27    29    31	 9 ;      OG2D1      CG2O1      NG2S1      CG311
   28    27    29    30	 9 ;      OG2D1      CG2O1      NG2S1       HGP1
    3    27    29    31	 9 ;     CG2R61      CG2O1      NG2S1      CG311
    3    27    29    30	 9 ;     CG2R61      CG2O1      NG2S1       HGP1
   27    29    31    33	 9 ;      CG2O1      NG2S1      CG311     CG2R61
   27    29    31    32	 9 ;      CG2O1      NG2S1      CG311      CG331
   27    29    31    62	 9 ;      CG2O1      NG2S1      CG311       HGA1
   30    29    31    33	 9 ;       HGP1      NG2S1      CG311     CG2R61
   30    29    31    32	 9 ;       HGP1      NG2S1      CG311      CG331
   30    29    31    62	 9 ;       HGP1      NG2S1      CG311       HGA1
   29    31    33    39	 9 ;      NG2S1      CG311     CG2R61     CG2R61
   29    31    33    34	 9 ;      NG2S1      CG311     CG2R61     CG2R61
   32    31    33    39	 9 ;      CG331      CG311     CG2R61     CG2R61
   32    31    33    34	 9 ;      CG331      CG311     CG2R61     CG2R61
   62    31    33    39	 9 ;       HGA1      CG311     CG2R61     CG2R61
   62    31    33    34	 9 ;       HGA1      CG311     CG2R61     CG2R61
   29    31    32    63	 9 ;      NG2S1      CG311      CG331       HGA3
   29    31    32    64	 9 ;      NG2S1      CG311      CG331       HGA3
   29    31    32    65	 9 ;      NG2S1      CG311      CG331       HGA3
   33    31    32    63	 9 ;     CG2R61      CG311      CG331       HGA3
   33    31    32    64	 9 ;     CG2R61      CG311      CG331       HGA3
   33    31    32    65	 9 ;     CG2R61      CG311      CG331       HGA3
   62    31    32    63	 9 ;       HGA1      CG311      CG331       HGA3
   62    31    32    64	 9 ;       HGA1      CG311      CG331       HGA3
   62    31    32    65	 9 ;       HGA1      CG311      CG331       HGA3
   31    33    39    38	 9 ;      CG311     CG2R61     CG2R61     CG2R61
   31    33    39    69	 9 ;      CG311     CG2R61     CG2R61      HGR61
   34    33    39    38	 9 ;     CG2R61     CG2R61     CG2R61     CG2R61
   34    33    39    69	 9 ;     CG2R61     CG2R61     CG2R61      HGR61
   39    33    34    35	 9 ;     CG2R61     CG2R61     CG2R61     CG2R61
   39    33    34    66	 9 ;     CG2R61     CG2R61     CG2R61      HGR61
   31    33    34    35	 9 ;      CG311     CG2R61     CG2R61     CG2R61
   31    33    34    66	 9 ;      CG311     CG2R61     CG2R61      HGR61
   33    34    35    36	 9 ;     CG2R61     CG2R61     CG2R61     CG2R66
   33    34    35    67	 9 ;     CG2R61     CG2R61     CG2R61      HGR62
   66    34    35    36	 9 ;      HGR61     CG2R61     CG2R61     CG2R66
   66    34    35    67	 9 ;      HGR61     CG2R61     CG2R61      HGR62
   34    35    36    38	 9 ;     CG2R61     CG2R61     CG2R66     CG2R61
   34    35    36    37	 9 ;     CG2R61     CG2R61     CG2R66       FGR1
   67    35    36    38	 9 ;      HGR62     CG2R61     CG2R66     CG2R61
   67    35    36    37	 9 ;      HGR62     CG2R61     CG2R66       FGR1
   37    36    38    39	 9 ;       FGR1     CG2R66     CG2R61     CG2R61
   37    36    38    68	 9 ;       FGR1     CG2R66     CG2R61      HGR62
   35    36    38    39	 9 ;     CG2R61     CG2R66     CG2R61     CG2R61
   35    36    38    68	 9 ;     CG2R61     CG2R66     CG2R61      HGR62
   36    38    39    33	 9 ;     CG2R66     CG2R61     CG2R61     CG2R61
   36    38    39    69	 9 ;     CG2R66     CG2R61     CG2R61      HGR61
   68    38    39    33	 9 ;      HGR62     CG2R61     CG2R61     CG2R61
   68    38    39    69	 9 ;      HGR62     CG2R61     CG2R61      HGR61
    1    40    41    70	 9 ;     CG2R61      NG301      CG331       HGA3
    1    40    41    71	 9 ;     CG2R61      NG301      CG331       HGA3
    1    40    41    72	 9 ;     CG2R61      NG301      CG331       HGA3
   42    40    41    70	 9 ;      SG3O2      NG301      CG331       HGA3
   42    40    41    71	 9 ;      SG3O2      NG301      CG331       HGA3
   42    40    41    72	 9 ;      SG3O2      NG301      CG331       HGA3
   41    40    42    44	 9 ;      CG331      NG301      SG3O2      OG2P1
   41    40    42    45	 9 ;      CG331      NG301      SG3O2      CG331
   41    40    42    43	 9 ;      CG331      NG301      SG3O2      OG2P1
    1    40    42    44	 9 ;     CG2R61      NG301      SG3O2      OG2P1
    1    40    42    45	 9 ;     CG2R61      NG301      SG3O2      CG331
    1    40    42    43	 9 ;     CG2R61      NG301      SG3O2      OG2P1
   40    42    45    73	 9 ;      NG301      SG3O2      CG331       HGA3
   40    42    45    74	 9 ;      NG301      SG3O2      CG331       HGA3
   40    42    45    75	 9 ;      NG301      SG3O2      CG331       HGA3
   44    42    45    73	 9 ;      OG2P1      SG3O2      CG331       HGA3
   44    42    45    74	 9 ;      OG2P1      SG3O2      CG331       HGA3
   44    42    45    75	 9 ;      OG2P1      SG3O2      CG331       HGA3
   43    42    45    73	 9 ;      OG2P1      SG3O2      CG331       HGA3
   43    42    45    74	 9 ;      OG2P1      SG3O2      CG331       HGA3
   43    42    45    75	 9 ;      OG2P1      SG3O2      CG331       HGA3

[ dihedrals ]
;	ai	  aj	ak	  al funct			  c0			c1			  c2			c3
   27     3    29    28	 2

