Gromacs Runs On Most of All Computer Systems
   78
    1LIG     C1    1  -1.235   0.472  -1.581
    1LIG     C2    2  -1.141   0.424  -1.467
    1LIG     C3    3  -1.088   0.285  -1.478
    1LIG     C4    4  -0.963   0.252  -1.424
    1LIG     C5    5  -0.919   0.120  -1.427
    1LIG     F1    6  -0.801   0.089  -1.373
    1LIG     C6    7  -0.998   0.020  -1.484
    1LIG     C7    8  -1.121   0.053  -1.536
    1LIG     C8    9  -1.168   0.185  -1.533
    1LIG     F2   10  -1.200  -0.042  -1.588
    1LIG     N1   11  -1.375   0.436  -1.544
    1LIG     C9   12  -1.477   0.403  -1.632
    1LIG     O1   13  -1.461   0.419  -1.753
    1LIG     H1   14  -1.391   0.407  -1.449
    1LIG    C10   15  -1.605   0.358  -1.570
    1LIG    C11   16  -1.730   0.328  -1.636
    1LIG    C12   17  -1.830   0.310  -1.538
    1LIG    C13   18  -1.767   0.319  -1.772
    1LIG     N2   19  -1.770   0.327  -1.413
    1LIG    C14   20  -1.963   0.281  -1.575
    1LIG    C15   21  -1.632   0.340  -1.435
    1LIG    C16   22  -1.828   0.333  -1.283
    1LIG     O2   23  -1.756   0.323  -1.184
    1LIG    C17   24  -1.997   0.279  -1.710
    1LIG    C18   25  -1.901   0.298  -1.808
    1LIG     O3   26  -1.961   0.356  -1.285
    1LIG    C19   27  -2.048   0.265  -1.212
    1LIG    C20   28  -2.020   0.114  -1.222
    1LIG    C21   29  -2.123   0.032  -1.299
    1LIG    C22   30  -2.219   0.122  -1.378
    1LIG    C23   31  -1.211   0.626  -1.602
    1LIG    C24   32  -1.293   0.715  -1.503
    1LIG     N3   33  -1.410   0.779  -1.572
    1LIG     H2   34  -1.378   0.865  -1.618
    1LIG     H3   35  -1.444   0.720  -1.649
    1LIG    C25   36  -1.527   0.809  -1.483
    1LIG    C26   37  -1.648   0.738  -1.536
    1LIG    C27   38  -1.753   0.707  -1.448
    1LIG    C28   39  -1.878   0.670  -1.497
    1LIG    C29   40  -1.897   0.660  -1.635
    1LIG    C30   41  -1.791   0.681  -1.723
    1LIG    C31   42  -1.667   0.720  -1.674
    1LIG     O4   43  -1.989   0.651  -1.421
    1LIG    C32   44  -2.107   0.606  -1.488
    1LIG     O5   45  -1.074   0.665  -1.583
    1LIG     H4   46  -1.043   0.711  -1.664
    1LIG     HC   47  -1.208   0.419  -1.673
    1LIG    HC2   48  -1.197   0.431  -1.373
    1LIG    HC3   49  -1.056   0.493  -1.461
    1LIG    HC1   50  -0.901   0.329  -1.379
    1LIG    HC4   51  -0.962  -0.082  -1.487
    1LIG    HC5   52  -1.265   0.209  -1.574
    1LIG    HC6   53  -1.692   0.329  -1.849
    1LIG    HC7   54  -2.037   0.260  -1.499
    1LIG    HC8   55  -1.557   0.337  -1.358
    1LIG    HC9   56  -2.100   0.263  -1.739
    1LIG   HC10   57  -1.929   0.297  -1.912
    1LIG   HC11   58  -2.149   0.281  -1.249
    1LIG   HC12   59  -2.045   0.293  -1.107
    1LIG   HC13   60  -2.014   0.074  -1.121
    1LIG   HC14   61  -1.923   0.100  -1.270
    1LIG   HC15   62  -2.072  -0.034  -1.369
    1LIG   HC16   63  -2.180  -0.028  -1.228
    1LIG   HC17   64  -2.284   0.060  -1.440
    1LIG   HC18   65  -2.280   0.179  -1.308
    1LIG   HC19   66  -2.162   0.190  -1.440
    1LIG   HC20   67  -1.240   0.652  -1.703
    1LIG   HC21   68  -1.228   0.794  -1.464
    1LIG   HC22   69  -1.329   0.654  -1.421
    1LIG   HC23   70  -1.546   0.916  -1.481
    1LIG   HC24   71  -1.506   0.774  -1.382
    1LIG   HC25   72  -1.736   0.712  -1.341
    1LIG   HC26   73  -1.995   0.635  -1.673
    1LIG   HC27   74  -1.806   0.667  -1.829
    1LIG   HC28   75  -1.584   0.737  -1.742
    1LIG   HC29   76  -2.184   0.583  -1.415
    1LIG   HC30   77  -2.084   0.516  -1.546
    1LIG   HC31   78  -2.142   0.684  -1.555
   0.00000   0.00000   0.00000
