; Created by cgenff_charmm2gmx.py

[ moleculetype ]
; Name			   nrexcl
LIG				 3

[ atoms ]
;	 nr		  type	resnr residue  atom   cgnr	   charge		mass  typeB    chargeB		massB
; residue	 1 LIG rtp LIG q	qsum
     1      CG311      1    LIG     C1      1      0.008     12.011   ;
     2      CG321      1    LIG     C2      2     -0.153     12.011   ;
     3     CG2R61      1    LIG     C3      3      0.057     12.011   ;
     4     CG2R61      1    LIG     C4      4     -0.218     12.011   ;
     5     CG2R66      1    LIG     C5      5      0.261     12.011   ;
     6       FGR1      1    LIG     F1      6     -0.210     18.998   ;
     7     CG2R61      1    LIG     C6      7     -0.240     12.011   ;
     8     CG2R66      1    LIG     C7      8      0.261     12.011   ;
     9     CG2R61      1    LIG     C8      9     -0.218     12.011   ;
    10       FGR1      1    LIG     F2     10     -0.210     18.998   ;
    11      NG2S1      1    LIG     N1     11     -0.397     14.007   ;
    12      CG2O1      1    LIG     C9     12      0.600     12.011   ;
    13      OG2D1      1    LIG     O1     13     -0.474     15.999   ;
    14       HGP1      1    LIG     H1     14      0.263      1.008   ;
    15     CG2R51      1    LIG    C10     15     -0.766     12.011   ;
    16     CG2RC0      1    LIG    C11     16      0.840     12.011   ;
    17     CG2RC0      1    LIG    C12     17      0.132     12.011   ;
    18     CG2R61      1    LIG    C13     18     -0.460     12.011   ;
    19     NG2R51      1    LIG     N2     19     -0.010     14.007   ;
    20     CG2R61      1    LIG    C14     20     -0.257     12.011   ;
    21     CG2R51      1    LIG    C15     21     -0.091     12.011   ;
    22      CG2O6      1    LIG    C16     22      0.441     12.011   ;
    23      OG2D1      1    LIG     O2     23     -0.455     15.999   ;
    24     CG2R61      1    LIG    C17     24     -0.177     12.011   ;
    25     CG2R61      1    LIG    C18     25     -0.205     12.011   ;
    26      OG302      1    LIG     O3     26     -0.320     15.999   ;
    27      CG321      1    LIG    C19     27      0.153     12.011   ;
    28      CG321      1    LIG    C20     28     -0.188     12.011   ;
    29      CG321      1    LIG    C21     29     -0.180     12.011   ;
    30      CG331      1    LIG    C22     30     -0.270     12.011   ;
    31      CG311      1    LIG    C23     31      0.094     12.011   ;
    32      CG324      1    LIG    C24     32      0.178     12.011   ;
    33      NG3P2      1    LIG     N3     33     -0.444     14.007   ;
    34       HGP2      1    LIG     H2     34      0.348      1.008   ;
    35       HGP2      1    LIG     H3     35      0.348      1.008   ;
    36      CG324      1    LIG    C25     36      0.171     12.011   ;
    37     CG2R61      1    LIG    C26     37      0.036     12.011   ;
    38     CG2R61      1    LIG    C27     38     -0.124     12.011   ;
    39     CG2R61      1    LIG    C28     39      0.216     12.011   ;
    40     CG2R61      1    LIG    C29     40     -0.121     12.011   ;
    41     CG2R61      1    LIG    C30     41     -0.108     12.011   ;
    42     CG2R61      1    LIG    C31     42     -0.119     12.011   ;
    43      OG301      1    LIG     O4     43     -0.383     15.999   ;
    44      CG331      1    LIG    C32     44     -0.094     12.011   ;
    45      OG311      1    LIG     O5     45     -0.625     15.999   ;
    46       HGP1      1    LIG     H4     46      0.415      1.008   ;
    47       HGA1      1    LIG     HC     47      0.090      1.008   ;
    48       HGA2      1    LIG    HC2     48      0.090      1.008   ;
    49       HGA2      1    LIG    HC3     49      0.090      1.008   ;
    50      HGR62      1    LIG    HC1     50      0.174      1.008   ;
    51      HGR62      1    LIG    HC4     51      0.186      1.008   ;
    52      HGR62      1    LIG    HC5     52      0.174      1.008   ;
    53      HGR61      1    LIG    HC6     53      0.197      1.008   ;
    54      HGR61      1    LIG    HC7     54      0.184      1.008   ;
    55      HGR52      1    LIG    HC8     55      0.248      1.008   ;
    56      HGR61      1    LIG    HC9     56      0.134      1.008   ;
    57      HGR61      1    LIG   HC10     57      0.134      1.008   ;
    58       HGA2      1    LIG   HC11     58      0.090      1.008   ;
    59       HGA2      1    LIG   HC12     59      0.090      1.008   ;
    60       HGA2      1    LIG   HC13     60      0.090      1.008   ;
    61       HGA2      1    LIG   HC14     61      0.090      1.008   ;
    62       HGA2      1    LIG   HC15     62      0.090      1.008   ;
    63       HGA2      1    LIG   HC16     63      0.090      1.008   ;
    64       HGA3      1    LIG   HC17     64      0.090      1.008   ;
    65       HGA3      1    LIG   HC18     65      0.090      1.008   ;
    66       HGA3      1    LIG   HC19     66      0.090      1.008   ;
    67       HGA1      1    LIG   HC20     67      0.090      1.008   ;
    68       HGA2      1    LIG   HC21     68      0.090      1.008   ;
    69       HGA2      1    LIG   HC22     69      0.090      1.008   ;
    70       HGA2      1    LIG   HC23     70      0.090      1.008   ;
    71       HGA2      1    LIG   HC24     71      0.090      1.008   ;
    72      HGR61      1    LIG   HC25     72      0.116      1.008   ;
    73      HGR61      1    LIG   HC26     73      0.116      1.008   ;
    74      HGR61      1    LIG   HC27     74      0.116      1.008   ;
    75      HGR61      1    LIG   HC28     75      0.116      1.008   ;
    76       HGA3      1    LIG   HC29     76      0.090      1.008   ;
    77       HGA3      1    LIG   HC30     77      0.090      1.008   ;
    78       HGA3      1    LIG   HC31     78      0.090      1.008   ;

[ bonds ]
;	ai	  aj funct			  c0			c1			  c2			c3
    1    31	 1 ;       CG311      CG311
    1     2	 1 ;       CG311      CG321
    1    11	 1 ;       CG311      NG2S1
    1    47	 1 ;       CG311       HGA1
    2     3	 1 ;       CG321     CG2R61
    2    48	 1 ;       CG321       HGA2
    2    49	 1 ;       CG321       HGA2
    3     4	 1 ;      CG2R61     CG2R61
    3     9	 1 ;      CG2R61     CG2R61
    4     5	 1 ;      CG2R61     CG2R66
    4    50	 1 ;      CG2R61      HGR62
    5     6	 1 ;      CG2R66       FGR1
    5     7	 1 ;      CG2R66     CG2R61
    7     8	 1 ;      CG2R61     CG2R66
    7    51	 1 ;      CG2R61      HGR62
    8     9	 1 ;      CG2R66     CG2R61
    8    10	 1 ;      CG2R66       FGR1
    9    52	 1 ;      CG2R61      HGR62
   11    12	 1 ;       NG2S1      CG2O1
   11    14	 1 ;       NG2S1       HGP1
   12    13	 1 ;       CG2O1      OG2D1
   12    15	 1 ;       CG2O1     CG2R51
   15    16	 1 ;      CG2R51     CG2RC0
   15    21	 1 ;      CG2R51     CG2R51
   16    18	 1 ;      CG2RC0     CG2R61
   16    17	 1 ;      CG2RC0     CG2RC0
   17    19	 1 ;      CG2RC0     NG2R51
   17    20	 1 ;      CG2RC0     CG2R61
   18    25	 1 ;      CG2R61     CG2R61
   18    53	 1 ;      CG2R61      HGR61
   19    21	 1 ;      NG2R51     CG2R51
   19    22	 1 ;      NG2R51      CG2O6
   20    24	 1 ;      CG2R61     CG2R61
   20    54	 1 ;      CG2R61      HGR61
   21    55	 1 ;      CG2R51      HGR52
   22    23	 1 ;       CG2O6      OG2D1
   22    26	 1 ;       CG2O6      OG302
   24    25	 1 ;      CG2R61     CG2R61
   24    56	 1 ;      CG2R61      HGR61
   25    57	 1 ;      CG2R61      HGR61
   26    27	 1 ;       OG302      CG321
   27    28	 1 ;       CG321      CG321
   27    58	 1 ;       CG321       HGA2
   27    59	 1 ;       CG321       HGA2
   28    29	 1 ;       CG321      CG321
   28    60	 1 ;       CG321       HGA2
   28    61	 1 ;       CG321       HGA2
   29    30	 1 ;       CG321      CG331
   29    62	 1 ;       CG321       HGA2
   29    63	 1 ;       CG321       HGA2
   30    64	 1 ;       CG331       HGA3
   30    65	 1 ;       CG331       HGA3
   30    66	 1 ;       CG331       HGA3
   31    45	 1 ;       CG311      OG311
   31    32	 1 ;       CG311      CG324
   31    67	 1 ;       CG311       HGA1
   32    33	 1 ;       CG324      NG3P2
   32    68	 1 ;       CG324       HGA2
   32    69	 1 ;       CG324       HGA2
   33    34	 1 ;       NG3P2       HGP2
   33    35	 1 ;       NG3P2       HGP2
   33    36	 1 ;       NG3P2      CG324
   36    37	 1 ;       CG324     CG2R61
   36    70	 1 ;       CG324       HGA2
   36    71	 1 ;       CG324       HGA2
   37    42	 1 ;      CG2R61     CG2R61
   37    38	 1 ;      CG2R61     CG2R61
   38    39	 1 ;      CG2R61     CG2R61
   38    72	 1 ;      CG2R61      HGR61
   39    40	 1 ;      CG2R61     CG2R61
   39    43	 1 ;      CG2R61      OG301
   40    41	 1 ;      CG2R61     CG2R61
   40    73	 1 ;      CG2R61      HGR61
   41    42	 1 ;      CG2R61     CG2R61
   41    74	 1 ;      CG2R61      HGR61
   42    75	 1 ;      CG2R61      HGR61
   43    44	 1 ;       OG301      CG331
   44    76	 1 ;       CG331       HGA3
   44    77	 1 ;       CG331       HGA3
   44    78	 1 ;       CG331       HGA3
   45    46	 1 ;       OG311       HGP1

[ pairs ]
;	ai	  aj funct			  c0			c1			  c2			c3
    1     4	 1
    1     9	 1
    1    13	 1
    1    15	 1
    1    46	 1
    1    33	 1
    1    68	 1
    1    69	 1
    2    45	 1
    2    32	 1
    2    67	 1
    2    12	 1
    2    14	 1
    2     5	 1
    2    50	 1
    2     8	 1
    2    52	 1
    3    31	 1
    3    11	 1
    3    47	 1
    3     6	 1
    3     7	 1
    3    10	 1
    4    48	 1
    4    49	 1
    4     8	 1
    4    52	 1
    4    51	 1
    5     9	 1
    5    10	 1
    6    50	 1
    6     8	 1
    6    51	 1
    7    50	 1
    7    52	 1
    9    48	 1
    9    49	 1
    9    50	 1
    9    51	 1
   10    51	 1
   10    52	 1
   11    45	 1
   11    32	 1
   11    67	 1
   11    48	 1
   11    49	 1
   11    16	 1
   11    21	 1
   12    31	 1
   12    47	 1
   12    18	 1
   12    17	 1
   12    19	 1
   12    55	 1
   13    14	 1
   13    16	 1
   13    21	 1
   14    31	 1
   14    47	 1
   14    15	 1
   15    25	 1
   15    53	 1
   15    20	 1
   15    22	 1
   16    55	 1
   16    22	 1
   16    24	 1
   16    54	 1
   16    57	 1
   17    25	 1
   17    53	 1
   17    55	 1
   17    23	 1
   17    26	 1
   17    56	 1
   18    21	 1
   18    19	 1
   18    20	 1
   18    56	 1
   19    24	 1
   19    54	 1
   19    27	 1
   20    21	 1
   20    22	 1
   20    57	 1
   21    23	 1
   21    26	 1
   22    55	 1
   22    28	 1
   22    58	 1
   22    59	 1
   23    27	 1
   24    53	 1
   25    54	 1
   26    29	 1
   26    60	 1
   26    61	 1
   27    30	 1
   27    62	 1
   27    63	 1
   28    64	 1
   28    65	 1
   28    66	 1
   29    58	 1
   29    59	 1
   30    60	 1
   30    61	 1
   31    48	 1
   31    49	 1
   31    34	 1
   31    35	 1
   31    36	 1
   32    47	 1
   32    46	 1
   32    37	 1
   32    70	 1
   32    71	 1
   33    45	 1
   33    67	 1
   33    42	 1
   33    38	 1
   34    68	 1
   34    69	 1
   34    37	 1
   34    70	 1
   34    71	 1
   35    68	 1
   35    69	 1
   35    37	 1
   35    70	 1
   35    71	 1
   36    68	 1
   36    69	 1
   36    41	 1
   36    75	 1
   36    39	 1
   36    72	 1
   37    40	 1
   37    43	 1
   37    74	 1
   38    70	 1
   38    71	 1
   38    41	 1
   38    75	 1
   38    73	 1
   38    44	 1
   39    42	 1
   39    74	 1
   39    76	 1
   39    77	 1
   39    78	 1
   40    72	 1
   40    44	 1
   40    75	 1
   41    43	 1
   42    70	 1
   42    71	 1
   42    72	 1
   42    73	 1
   43    72	 1
   43    73	 1
   45    47	 1
   45    68	 1
   45    69	 1
   46    67	 1
   47    67	 1
   47    48	 1
   47    49	 1
   53    57	 1
   54    56	 1
   56    57	 1
   58    60	 1
   58    61	 1
   59    60	 1
   59    61	 1
   60    62	 1
   60    63	 1
   61    62	 1
   61    63	 1
   62    64	 1
   62    65	 1
   62    66	 1
   63    64	 1
   63    65	 1
   63    66	 1
   67    68	 1
   67    69	 1
   73    74	 1
   74    75	 1

[ angles ]
;	ai	  aj	ak funct			c0			  c1			c2			  c3
   31     1     2	5 ;      CG311      CG311      CG321
   31     1    11	5 ;      CG311      CG311      NG2S1
   31     1    47	5 ;      CG311      CG311       HGA1
    2     1    11	5 ;      CG321      CG311      NG2S1
    2     1    47	5 ;      CG321      CG311       HGA1
   11     1    47	5 ;      NG2S1      CG311       HGA1
    1     2     3	5 ;      CG311      CG321     CG2R61
    1     2    48	5 ;      CG311      CG321       HGA2
    1     2    49	5 ;      CG311      CG321       HGA2
    3     2    48	5 ;     CG2R61      CG321       HGA2
    3     2    49	5 ;     CG2R61      CG321       HGA2
   48     2    49	5 ;       HGA2      CG321       HGA2
    4     3     2	5 ;     CG2R61     CG2R61      CG321
    4     3     9	5 ;     CG2R61     CG2R61     CG2R61
    2     3     9	5 ;      CG321     CG2R61     CG2R61
    5     4     3	5 ;     CG2R66     CG2R61     CG2R61
    5     4    50	5 ;     CG2R66     CG2R61      HGR62
    3     4    50	5 ;     CG2R61     CG2R61      HGR62
    6     5     4	5 ;       FGR1     CG2R66     CG2R61
    6     5     7	5 ;       FGR1     CG2R66     CG2R61
    4     5     7	5 ;     CG2R61     CG2R66     CG2R61
    5     7     8	5 ;     CG2R66     CG2R61     CG2R66
    5     7    51	5 ;     CG2R66     CG2R61      HGR62
    8     7    51	5 ;     CG2R66     CG2R61      HGR62
    7     8     9	5 ;     CG2R61     CG2R66     CG2R61
    7     8    10	5 ;     CG2R61     CG2R66       FGR1
    9     8    10	5 ;     CG2R61     CG2R66       FGR1
    3     9     8	5 ;     CG2R61     CG2R61     CG2R66
    3     9    52	5 ;     CG2R61     CG2R61      HGR62
    8     9    52	5 ;     CG2R66     CG2R61      HGR62
    1    11    12	5 ;      CG311      NG2S1      CG2O1
    1    11    14	5 ;      CG311      NG2S1       HGP1
   12    11    14	5 ;      CG2O1      NG2S1       HGP1
   13    12    11	5 ;      OG2D1      CG2O1      NG2S1
   13    12    15	5 ;      OG2D1      CG2O1     CG2R51
   11    12    15	5 ;      NG2S1      CG2O1     CG2R51
   12    15    16	5 ;      CG2O1     CG2R51     CG2RC0
   12    15    21	5 ;      CG2O1     CG2R51     CG2R51
   16    15    21	5 ;     CG2RC0     CG2R51     CG2R51
   18    16    15	5 ;     CG2R61     CG2RC0     CG2R51
   18    16    17	5 ;     CG2R61     CG2RC0     CG2RC0
   15    16    17	5 ;     CG2R51     CG2RC0     CG2RC0
   16    17    19	5 ;     CG2RC0     CG2RC0     NG2R51
   16    17    20	5 ;     CG2RC0     CG2RC0     CG2R61
   19    17    20	5 ;     NG2R51     CG2RC0     CG2R61
   25    18    16	5 ;     CG2R61     CG2R61     CG2RC0
   25    18    53	5 ;     CG2R61     CG2R61      HGR61
   16    18    53	5 ;     CG2RC0     CG2R61      HGR61
   21    19    17	5 ;     CG2R51     NG2R51     CG2RC0
   21    19    22	5 ;     CG2R51     NG2R51      CG2O6
   17    19    22	5 ;     CG2RC0     NG2R51      CG2O6
   24    20    17	5 ;     CG2R61     CG2R61     CG2RC0
   24    20    54	5 ;     CG2R61     CG2R61      HGR61
   17    20    54	5 ;     CG2RC0     CG2R61      HGR61
   15    21    19	5 ;     CG2R51     CG2R51     NG2R51
   15    21    55	5 ;     CG2R51     CG2R51      HGR52
   19    21    55	5 ;     NG2R51     CG2R51      HGR52
   19    22    23	5 ;     NG2R51      CG2O6      OG2D1
   19    22    26	5 ;     NG2R51      CG2O6      OG302
   23    22    26	5 ;      OG2D1      CG2O6      OG302
   25    24    20	5 ;     CG2R61     CG2R61     CG2R61
   25    24    56	5 ;     CG2R61     CG2R61      HGR61
   20    24    56	5 ;     CG2R61     CG2R61      HGR61
   18    25    24	5 ;     CG2R61     CG2R61     CG2R61
   18    25    57	5 ;     CG2R61     CG2R61      HGR61
   24    25    57	5 ;     CG2R61     CG2R61      HGR61
   22    26    27	5 ;      CG2O6      OG302      CG321
   26    27    28	5 ;      OG302      CG321      CG321
   26    27    58	5 ;      OG302      CG321       HGA2
   26    27    59	5 ;      OG302      CG321       HGA2
   28    27    58	5 ;      CG321      CG321       HGA2
   28    27    59	5 ;      CG321      CG321       HGA2
   58    27    59	5 ;       HGA2      CG321       HGA2
   27    28    29	5 ;      CG321      CG321      CG321
   27    28    60	5 ;      CG321      CG321       HGA2
   27    28    61	5 ;      CG321      CG321       HGA2
   29    28    60	5 ;      CG321      CG321       HGA2
   29    28    61	5 ;      CG321      CG321       HGA2
   60    28    61	5 ;       HGA2      CG321       HGA2
   28    29    30	5 ;      CG321      CG321      CG331
   28    29    62	5 ;      CG321      CG321       HGA2
   28    29    63	5 ;      CG321      CG321       HGA2
   30    29    62	5 ;      CG331      CG321       HGA2
   30    29    63	5 ;      CG331      CG321       HGA2
   62    29    63	5 ;       HGA2      CG321       HGA2
   29    30    64	5 ;      CG321      CG331       HGA3
   29    30    65	5 ;      CG321      CG331       HGA3
   29    30    66	5 ;      CG321      CG331       HGA3
   64    30    65	5 ;       HGA3      CG331       HGA3
   64    30    66	5 ;       HGA3      CG331       HGA3
   65    30    66	5 ;       HGA3      CG331       HGA3
   45    31     1	5 ;      OG311      CG311      CG311
   45    31    32	5 ;      OG311      CG311      CG324
   45    31    67	5 ;      OG311      CG311       HGA1
    1    31    32	5 ;      CG311      CG311      CG324
    1    31    67	5 ;      CG311      CG311       HGA1
   32    31    67	5 ;      CG324      CG311       HGA1
   31    32    33	5 ;      CG311      CG324      NG3P2
   31    32    68	5 ;      CG311      CG324       HGA2
   31    32    69	5 ;      CG311      CG324       HGA2
   33    32    68	5 ;      NG3P2      CG324       HGA2
   33    32    69	5 ;      NG3P2      CG324       HGA2
   68    32    69	5 ;       HGA2      CG324       HGA2
   34    33    35	5 ;       HGP2      NG3P2       HGP2
   34    33    32	5 ;       HGP2      NG3P2      CG324
   34    33    36	5 ;       HGP2      NG3P2      CG324
   35    33    32	5 ;       HGP2      NG3P2      CG324
   35    33    36	5 ;       HGP2      NG3P2      CG324
   32    33    36	5 ;      CG324      NG3P2      CG324
   33    36    37	5 ;      NG3P2      CG324     CG2R61
   33    36    70	5 ;      NG3P2      CG324       HGA2
   33    36    71	5 ;      NG3P2      CG324       HGA2
   37    36    70	5 ;     CG2R61      CG324       HGA2
   37    36    71	5 ;     CG2R61      CG324       HGA2
   70    36    71	5 ;       HGA2      CG324       HGA2
   42    37    36	5 ;     CG2R61     CG2R61      CG324
   42    37    38	5 ;     CG2R61     CG2R61     CG2R61
   36    37    38	5 ;      CG324     CG2R61     CG2R61
   37    38    39	5 ;     CG2R61     CG2R61     CG2R61
   37    38    72	5 ;     CG2R61     CG2R61      HGR61
   39    38    72	5 ;     CG2R61     CG2R61      HGR61
   40    39    38	5 ;     CG2R61     CG2R61     CG2R61
   40    39    43	5 ;     CG2R61     CG2R61      OG301
   38    39    43	5 ;     CG2R61     CG2R61      OG301
   41    40    39	5 ;     CG2R61     CG2R61     CG2R61
   41    40    73	5 ;     CG2R61     CG2R61      HGR61
   39    40    73	5 ;     CG2R61     CG2R61      HGR61
   42    41    40	5 ;     CG2R61     CG2R61     CG2R61
   42    41    74	5 ;     CG2R61     CG2R61      HGR61
   40    41    74	5 ;     CG2R61     CG2R61      HGR61
   41    42    37	5 ;     CG2R61     CG2R61     CG2R61
   41    42    75	5 ;     CG2R61     CG2R61      HGR61
   37    42    75	5 ;     CG2R61     CG2R61      HGR61
   39    43    44	5 ;     CG2R61      OG301      CG331
   43    44    76	5 ;      OG301      CG331       HGA3
   43    44    77	5 ;      OG301      CG331       HGA3
   43    44    78	5 ;      OG301      CG331       HGA3
   76    44    77	5 ;       HGA3      CG331       HGA3
   76    44    78	5 ;       HGA3      CG331       HGA3
   77    44    78	5 ;       HGA3      CG331       HGA3
   46    45    31	5 ;       HGP1      OG311      CG311

[ dihedrals ]
;	ai	  aj	ak	  al funct			  c0			c1			  c2			c3			  c4			c5
    2     1    31    45	 9 ;      CG321      CG311      CG311      OG311
    2     1    31    32	 9 ;      CG321      CG311      CG311      CG324
    2     1    31    67	 9 ;      CG321      CG311      CG311       HGA1
   11     1    31    45	 9 ;      NG2S1      CG311      CG311      OG311
   11     1    31    32	 9 ;      NG2S1      CG311      CG311      CG324
   11     1    31    67	 9 ;      NG2S1      CG311      CG311       HGA1
   47     1    31    45	 9 ;       HGA1      CG311      CG311      OG311
   47     1    31    32	 9 ;       HGA1      CG311      CG311      CG324
   47     1    31    67	 9 ;       HGA1      CG311      CG311       HGA1
   31     1     2     3	 9 ;      CG311      CG311      CG321     CG2R61
   31     1     2    48	 9 ;      CG311      CG311      CG321       HGA2
   31     1     2    49	 9 ;      CG311      CG311      CG321       HGA2
   11     1     2     3	 9 ;      NG2S1      CG311      CG321     CG2R61
   11     1     2    48	 9 ;      NG2S1      CG311      CG321       HGA2
   11     1     2    49	 9 ;      NG2S1      CG311      CG321       HGA2
   47     1     2     3	 9 ;       HGA1      CG311      CG321     CG2R61
   47     1     2    48	 9 ;       HGA1      CG311      CG321       HGA2
   47     1     2    49	 9 ;       HGA1      CG311      CG321       HGA2
   31     1    11    12	 9 ;      CG311      CG311      NG2S1      CG2O1
   31     1    11    14	 9 ;      CG311      CG311      NG2S1       HGP1
    2     1    11    12	 9 ;      CG321      CG311      NG2S1      CG2O1
    2     1    11    14	 9 ;      CG321      CG311      NG2S1       HGP1
   47     1    11    12	 9 ;       HGA1      CG311      NG2S1      CG2O1
   47     1    11    14	 9 ;       HGA1      CG311      NG2S1       HGP1
    1     2     3     4	 9 ;      CG311      CG321     CG2R61     CG2R61
    1     2     3     9	 9 ;      CG311      CG321     CG2R61     CG2R61
   48     2     3     4	 9 ;       HGA2      CG321     CG2R61     CG2R61
   48     2     3     9	 9 ;       HGA2      CG321     CG2R61     CG2R61
   49     2     3     4	 9 ;       HGA2      CG321     CG2R61     CG2R61
   49     2     3     9	 9 ;       HGA2      CG321     CG2R61     CG2R61
    2     3     4     5	 9 ;      CG321     CG2R61     CG2R61     CG2R66
    2     3     4    50	 9 ;      CG321     CG2R61     CG2R61      HGR62
    9     3     4     5	 9 ;     CG2R61     CG2R61     CG2R61     CG2R66
    9     3     4    50	 9 ;     CG2R61     CG2R61     CG2R61      HGR62
    4     3     9     8	 9 ;     CG2R61     CG2R61     CG2R61     CG2R66
    4     3     9    52	 9 ;     CG2R61     CG2R61     CG2R61      HGR62
    2     3     9     8	 9 ;      CG321     CG2R61     CG2R61     CG2R66
    2     3     9    52	 9 ;      CG321     CG2R61     CG2R61      HGR62
    3     4     5     6	 9 ;     CG2R61     CG2R61     CG2R66       FGR1
    3     4     5     7	 9 ;     CG2R61     CG2R61     CG2R66     CG2R61
   50     4     5     6	 9 ;      HGR62     CG2R61     CG2R66       FGR1
   50     4     5     7	 9 ;      HGR62     CG2R61     CG2R66     CG2R61
    6     5     7     8	 9 ;       FGR1     CG2R66     CG2R61     CG2R66
    6     5     7    51	 9 ;       FGR1     CG2R66     CG2R61      HGR62
    4     5     7     8	 9 ;     CG2R61     CG2R66     CG2R61     CG2R66
    4     5     7    51	 9 ;     CG2R61     CG2R66     CG2R61      HGR62
    5     7     8     9	 9 ;     CG2R66     CG2R61     CG2R66     CG2R61
    5     7     8    10	 9 ;     CG2R66     CG2R61     CG2R66       FGR1
   51     7     8     9	 9 ;      HGR62     CG2R61     CG2R66     CG2R61
   51     7     8    10	 9 ;      HGR62     CG2R61     CG2R66       FGR1
    7     8     9     3	 9 ;     CG2R61     CG2R66     CG2R61     CG2R61
    7     8     9    52	 9 ;     CG2R61     CG2R66     CG2R61      HGR62
   10     8     9     3	 9 ;       FGR1     CG2R66     CG2R61     CG2R61
   10     8     9    52	 9 ;       FGR1     CG2R66     CG2R61      HGR62
    1    11    12    13	 9 ;      CG311      NG2S1      CG2O1      OG2D1
    1    11    12    15	 9 ;      CG311      NG2S1      CG2O1     CG2R51
   14    11    12    13	 9 ;       HGP1      NG2S1      CG2O1      OG2D1
   14    11    12    15	 9 ;       HGP1      NG2S1      CG2O1     CG2R51
   13    12    15    16	 9 ;      OG2D1      CG2O1     CG2R51     CG2RC0
   13    12    15    21	 9 ;      OG2D1      CG2O1     CG2R51     CG2R51
   11    12    15    16	 9 ;      NG2S1      CG2O1     CG2R51     CG2RC0
   11    12    15    21	 9 ;      NG2S1      CG2O1     CG2R51     CG2R51
   12    15    16    18	 9 ;      CG2O1     CG2R51     CG2RC0     CG2R61
   12    15    16    17	 9 ;      CG2O1     CG2R51     CG2RC0     CG2RC0
   21    15    16    18	 9 ;     CG2R51     CG2R51     CG2RC0     CG2R61
   21    15    16    17	 9 ;     CG2R51     CG2R51     CG2RC0     CG2RC0
   12    15    21    19	 9 ;      CG2O1     CG2R51     CG2R51     NG2R51
   12    15    21    55	 9 ;      CG2O1     CG2R51     CG2R51      HGR52
   16    15    21    19	 9 ;     CG2RC0     CG2R51     CG2R51     NG2R51
   16    15    21    55	 9 ;     CG2RC0     CG2R51     CG2R51      HGR52
   15    16    18    25	 9 ;     CG2R51     CG2RC0     CG2R61     CG2R61
   15    16    18    53	 9 ;     CG2R51     CG2RC0     CG2R61      HGR61
   17    16    18    25	 9 ;     CG2RC0     CG2RC0     CG2R61     CG2R61
   17    16    18    53	 9 ;     CG2RC0     CG2RC0     CG2R61      HGR61
   18    16    17    19	 9 ;     CG2R61     CG2RC0     CG2RC0     NG2R51
   18    16    17    20	 9 ;     CG2R61     CG2RC0     CG2RC0     CG2R61
   15    16    17    19	 9 ;     CG2R51     CG2RC0     CG2RC0     NG2R51
   15    16    17    20	 9 ;     CG2R51     CG2RC0     CG2RC0     CG2R61
   16    17    19    21	 9 ;     CG2RC0     CG2RC0     NG2R51     CG2R51
   16    17    19    22	 9 ;     CG2RC0     CG2RC0     NG2R51      CG2O6
   20    17    19    21	 9 ;     CG2R61     CG2RC0     NG2R51     CG2R51
   20    17    19    22	 9 ;     CG2R61     CG2RC0     NG2R51      CG2O6
   16    17    20    24	 9 ;     CG2RC0     CG2RC0     CG2R61     CG2R61
   16    17    20    54	 9 ;     CG2RC0     CG2RC0     CG2R61      HGR61
   19    17    20    24	 9 ;     NG2R51     CG2RC0     CG2R61     CG2R61
   19    17    20    54	 9 ;     NG2R51     CG2RC0     CG2R61      HGR61
   16    18    25    24	 9 ;     CG2RC0     CG2R61     CG2R61     CG2R61
   16    18    25    57	 9 ;     CG2RC0     CG2R61     CG2R61      HGR61
   53    18    25    24	 9 ;      HGR61     CG2R61     CG2R61     CG2R61
   53    18    25    57	 9 ;      HGR61     CG2R61     CG2R61      HGR61
   17    19    21    15	 9 ;     CG2RC0     NG2R51     CG2R51     CG2R51
   17    19    21    55	 9 ;     CG2RC0     NG2R51     CG2R51      HGR52
   22    19    21    15	 9 ;      CG2O6     NG2R51     CG2R51     CG2R51
   22    19    21    55	 9 ;      CG2O6     NG2R51     CG2R51      HGR52
   21    19    22    23	 9 ;     CG2R51     NG2R51      CG2O6      OG2D1
   21    19    22    26	 9 ;     CG2R51     NG2R51      CG2O6      OG302
   17    19    22    23	 9 ;     CG2RC0     NG2R51      CG2O6      OG2D1
   17    19    22    26	 9 ;     CG2RC0     NG2R51      CG2O6      OG302
   17    20    24    25	 9 ;     CG2RC0     CG2R61     CG2R61     CG2R61
   17    20    24    56	 9 ;     CG2RC0     CG2R61     CG2R61      HGR61
   54    20    24    25	 9 ;      HGR61     CG2R61     CG2R61     CG2R61
   54    20    24    56	 9 ;      HGR61     CG2R61     CG2R61      HGR61
   19    22    26    27	 9 ;     NG2R51      CG2O6      OG302      CG321
   23    22    26    27	 9 ;      OG2D1      CG2O6      OG302      CG321
   20    24    25    18	 9 ;     CG2R61     CG2R61     CG2R61     CG2R61
   20    24    25    57	 9 ;     CG2R61     CG2R61     CG2R61      HGR61
   56    24    25    18	 9 ;      HGR61     CG2R61     CG2R61     CG2R61
   56    24    25    57	 9 ;      HGR61     CG2R61     CG2R61      HGR61
   22    26    27    28	 9 ;      CG2O6      OG302      CG321      CG321
   22    26    27    58	 9 ;      CG2O6      OG302      CG321       HGA2
   22    26    27    59	 9 ;      CG2O6      OG302      CG321       HGA2
   26    27    28    29	 9 ;      OG302      CG321      CG321      CG321
   26    27    28    60	 9 ;      OG302      CG321      CG321       HGA2
   26    27    28    61	 9 ;      OG302      CG321      CG321       HGA2
   58    27    28    29	 9 ;       HGA2      CG321      CG321      CG321
   58    27    28    60	 9 ;       HGA2      CG321      CG321       HGA2
   58    27    28    61	 9 ;       HGA2      CG321      CG321       HGA2
   59    27    28    29	 9 ;       HGA2      CG321      CG321      CG321
   59    27    28    60	 9 ;       HGA2      CG321      CG321       HGA2
   59    27    28    61	 9 ;       HGA2      CG321      CG321       HGA2
   27    28    29    30	 9 ;      CG321      CG321      CG321      CG331
   27    28    29    62	 9 ;      CG321      CG321      CG321       HGA2
   27    28    29    63	 9 ;      CG321      CG321      CG321       HGA2
   60    28    29    30	 9 ;       HGA2      CG321      CG321      CG331
   60    28    29    62	 9 ;       HGA2      CG321      CG321       HGA2
   60    28    29    63	 9 ;       HGA2      CG321      CG321       HGA2
   61    28    29    30	 9 ;       HGA2      CG321      CG321      CG331
   61    28    29    62	 9 ;       HGA2      CG321      CG321       HGA2
   61    28    29    63	 9 ;       HGA2      CG321      CG321       HGA2
   28    29    30    64	 9 ;      CG321      CG321      CG331       HGA3
   28    29    30    65	 9 ;      CG321      CG321      CG331       HGA3
   28    29    30    66	 9 ;      CG321      CG321      CG331       HGA3
   62    29    30    64	 9 ;       HGA2      CG321      CG331       HGA3
   62    29    30    65	 9 ;       HGA2      CG321      CG331       HGA3
   62    29    30    66	 9 ;       HGA2      CG321      CG331       HGA3
   63    29    30    64	 9 ;       HGA2      CG321      CG331       HGA3
   63    29    30    65	 9 ;       HGA2      CG321      CG331       HGA3
   63    29    30    66	 9 ;       HGA2      CG321      CG331       HGA3
    1    31    45    46	 9 ;      CG311      CG311      OG311       HGP1
   32    31    45    46	 9 ;      CG324      CG311      OG311       HGP1
   67    31    45    46	 9 ;       HGA1      CG311      OG311       HGP1
   45    31    32    33	 9 ;      OG311      CG311      CG324      NG3P2
   45    31    32    68	 9 ;      OG311      CG311      CG324       HGA2
   45    31    32    69	 9 ;      OG311      CG311      CG324       HGA2
    1    31    32    33	 9 ;      CG311      CG311      CG324      NG3P2
    1    31    32    68	 9 ;      CG311      CG311      CG324       HGA2
    1    31    32    69	 9 ;      CG311      CG311      CG324       HGA2
   67    31    32    33	 9 ;       HGA1      CG311      CG324      NG3P2
   67    31    32    68	 9 ;       HGA1      CG311      CG324       HGA2
   67    31    32    69	 9 ;       HGA1      CG311      CG324       HGA2
   31    32    33    34	 9 ;      CG311      CG324      NG3P2       HGP2
   31    32    33    35	 9 ;      CG311      CG324      NG3P2       HGP2
   31    32    33    36	 9 ;      CG311      CG324      NG3P2      CG324
   68    32    33    34	 9 ;       HGA2      CG324      NG3P2       HGP2
   68    32    33    35	 9 ;       HGA2      CG324      NG3P2       HGP2
   68    32    33    36	 9 ;       HGA2      CG324      NG3P2      CG324
   69    32    33    34	 9 ;       HGA2      CG324      NG3P2       HGP2
   69    32    33    35	 9 ;       HGA2      CG324      NG3P2       HGP2
   69    32    33    36	 9 ;       HGA2      CG324      NG3P2      CG324
   34    33    36    37	 9 ;       HGP2      NG3P2      CG324     CG2R61
   34    33    36    70	 9 ;       HGP2      NG3P2      CG324       HGA2
   34    33    36    71	 9 ;       HGP2      NG3P2      CG324       HGA2
   35    33    36    37	 9 ;       HGP2      NG3P2      CG324     CG2R61
   35    33    36    70	 9 ;       HGP2      NG3P2      CG324       HGA2
   35    33    36    71	 9 ;       HGP2      NG3P2      CG324       HGA2
   32    33    36    37	 9 ;      CG324      NG3P2      CG324     CG2R61
   32    33    36    70	 9 ;      CG324      NG3P2      CG324       HGA2
   32    33    36    71	 9 ;      CG324      NG3P2      CG324       HGA2
   33    36    37    42	 9 ;      NG3P2      CG324     CG2R61     CG2R61
   33    36    37    38	 9 ;      NG3P2      CG324     CG2R61     CG2R61
   70    36    37    42	 9 ;       HGA2      CG324     CG2R61     CG2R61
   70    36    37    38	 9 ;       HGA2      CG324     CG2R61     CG2R61
   71    36    37    42	 9 ;       HGA2      CG324     CG2R61     CG2R61
   71    36    37    38	 9 ;       HGA2      CG324     CG2R61     CG2R61
   36    37    42    41	 9 ;      CG324     CG2R61     CG2R61     CG2R61
   36    37    42    75	 9 ;      CG324     CG2R61     CG2R61      HGR61
   38    37    42    41	 9 ;     CG2R61     CG2R61     CG2R61     CG2R61
   38    37    42    75	 9 ;     CG2R61     CG2R61     CG2R61      HGR61
   42    37    38    39	 9 ;     CG2R61     CG2R61     CG2R61     CG2R61
   42    37    38    72	 9 ;     CG2R61     CG2R61     CG2R61      HGR61
   36    37    38    39	 9 ;      CG324     CG2R61     CG2R61     CG2R61
   36    37    38    72	 9 ;      CG324     CG2R61     CG2R61      HGR61
   37    38    39    40	 9 ;     CG2R61     CG2R61     CG2R61     CG2R61
   37    38    39    43	 9 ;     CG2R61     CG2R61     CG2R61      OG301
   72    38    39    40	 9 ;      HGR61     CG2R61     CG2R61     CG2R61
   72    38    39    43	 9 ;      HGR61     CG2R61     CG2R61      OG301
   38    39    40    41	 9 ;     CG2R61     CG2R61     CG2R61     CG2R61
   38    39    40    73	 9 ;     CG2R61     CG2R61     CG2R61      HGR61
   43    39    40    41	 9 ;      OG301     CG2R61     CG2R61     CG2R61
   43    39    40    73	 9 ;      OG301     CG2R61     CG2R61      HGR61
   40    39    43    44	 9 ;     CG2R61     CG2R61      OG301      CG331
   38    39    43    44	 9 ;     CG2R61     CG2R61      OG301      CG331
   39    40    41    42	 9 ;     CG2R61     CG2R61     CG2R61     CG2R61
   39    40    41    74	 9 ;     CG2R61     CG2R61     CG2R61      HGR61
   73    40    41    42	 9 ;      HGR61     CG2R61     CG2R61     CG2R61
   73    40    41    74	 9 ;      HGR61     CG2R61     CG2R61      HGR61
   40    41    42    37	 9 ;     CG2R61     CG2R61     CG2R61     CG2R61
   40    41    42    75	 9 ;     CG2R61     CG2R61     CG2R61      HGR61
   74    41    42    37	 9 ;      HGR61     CG2R61     CG2R61     CG2R61
   74    41    42    75	 9 ;      HGR61     CG2R61     CG2R61      HGR61
   39    43    44    76	 9 ;     CG2R61      OG301      CG331       HGA3
   39    43    44    77	 9 ;     CG2R61      OG301      CG331       HGA3
   39    43    44    78	 9 ;     CG2R61      OG301      CG331       HGA3

[ dihedrals ]
;	ai	  aj	ak	  al funct			  c0			c1			  c2			c3
   12    15    11    13	 2
   22    19    23    26	 2

