; Created by cgenff_charmm2gmx.py

[ moleculetype ]
; Name			   nrexcl
LIG				 3

[ atoms ]
;	 nr		  type	resnr residue  atom   cgnr	   charge		mass  typeB    chargeB		massB
; residue	 1 LIG rtp LIG q	qsum
     1     CG3C31      1    LIG     C1      1      0.064     12.011   ;
     2     CG3C31      1    LIG     C2      2     -0.174     12.011   ;
     3     CG3C31      1    LIG     C3      3     -0.056     12.011   ;
     4     CG2R61      1    LIG     C4      4     -0.035     12.011   ;
     5     CG2R61      1    LIG     C5      5     -0.116     12.011   ;
     6     CG2R61      1    LIG     C6      6     -0.119     12.011   ;
     7     CG2R67      1    LIG     C7      7      0.006     12.011   ;
     8     CG2R61      1    LIG     C8      8     -0.119     12.011   ;
     9     CG2R61      1    LIG     C9      9     -0.116     12.011   ;
    10     CG2R67      1    LIG    C10     10      0.007     12.011   ;
    11     CG2R61      1    LIG    C11     11     -0.124     12.011   ;
    12     CG2R61      1    LIG    C12     12      0.003     12.011   ;
    13     CG2R61      1    LIG    C13     13     -0.117     12.011   ;
    14     CG2R61      1    LIG    C14     14     -0.115     12.011   ;
    15     CG2R61      1    LIG    C15     15     -0.119     12.011   ;
    16      CG321      1    LIG    C16     16     -0.179     12.011   ;
    17      CG321      1    LIG    C17     17     -0.180     12.011   ;
    18      CG331      1    LIG    C18     18     -0.270     12.011   ;
    19     CG2D1O      1    LIG    C19     19     -0.018     12.011   ;
    20      NG311      1    LIG     N1     20     -0.532     14.007   ;
    21      CG314      1    LIG    C20     21      0.649     12.011   ;
    22     HGPAM1      1    LIG     HN     22      0.321      1.008   ;
    23      NG2S0      1    LIG     N2     23     -0.343     14.007   ;
    24      CG2O1      1    LIG    C21     24      0.413     12.011   ;
    25      CG331      1    LIG    C22     25     -0.238     12.011   ;
    26      OG2D1      1    LIG      O     26     -0.540     15.999   ;
    27     CG2DC1      1    LIG    C23     27      0.094     12.011   ;
    28      NG3P3      1    LIG     N3     28     -0.425     14.007   ;
    29       HGP2      1    LIG     H1     29      0.313      1.008   ;
    30       HGP2      1    LIG     H2     30      0.313      1.008   ;
    31       HGA1      1    LIG     HC     31      0.090      1.008   ;
    32       HGA2      1    LIG    HC2     32      0.090      1.008   ;
    33       HGA2      1    LIG    HC3     33      0.090      1.008   ;
    34       HGA1      1    LIG    HC1     34      0.090      1.008   ;
    35      HGR61      1    LIG    HC4     35      0.116      1.008   ;
    36      HGR61      1    LIG    HC5     36      0.116      1.008   ;
    37      HGR61      1    LIG    HC6     37      0.116      1.008   ;
    38      HGR61      1    LIG    HC7     38      0.116      1.008   ;
    39      HGR61      1    LIG    HC8     39      0.116      1.008   ;
    40      HGR61      1    LIG    HC9     40      0.116      1.008   ;
    41      HGR61      1    LIG   HC10     41      0.116      1.008   ;
    42      HGR61      1    LIG   HC11     42      0.116      1.008   ;
    43       HGA2      1    LIG   HC12     43      0.090      1.008   ;
    44       HGA2      1    LIG   HC13     44      0.090      1.008   ;
    45       HGA2      1    LIG   HC14     45      0.090      1.008   ;
    46       HGA2      1    LIG   HC15     46      0.090      1.008   ;
    47       HGA3      1    LIG   HC16     47      0.090      1.008   ;
    48       HGA3      1    LIG   HC17     48      0.090      1.008   ;
    49       HGA3      1    LIG   HC18     49      0.090      1.008   ;
    50       HGA1      1    LIG   HC19     50      0.115      1.008   ;
    51       HGA3      1    LIG   HC20     51      0.090      1.008   ;
    52       HGA3      1    LIG   HC21     52      0.090      1.008   ;
    53       HGA3      1    LIG   HC22     53      0.090      1.008   ;
    54       HGA4      1    LIG   HC23     54      0.136      1.008   ;
    55       HGP2      1    LIG    HN1     55      0.313      1.008   ;

[ bonds ]
;	ai	  aj funct			  c0			c1			  c2			c3
    1     3	 1 ;      CG3C31     CG3C31
    1     2	 1 ;      CG3C31     CG3C31
    1    19	 1 ;      CG3C31     CG2D1O
    1    31	 1 ;      CG3C31       HGA1
    2     3	 1 ;      CG3C31     CG3C31
    2    32	 1 ;      CG3C31       HGA2
    2    33	 1 ;      CG3C31       HGA2
    3     4	 1 ;      CG3C31     CG2R61
    3    34	 1 ;      CG3C31       HGA1
    4     9	 1 ;      CG2R61     CG2R61
    4     5	 1 ;      CG2R61     CG2R61
    5     6	 1 ;      CG2R61     CG2R61
    5    35	 1 ;      CG2R61      HGR61
    6     7	 1 ;      CG2R61     CG2R67
    6    36	 1 ;      CG2R61      HGR61
    7    10	 1 ;      CG2R67     CG2R67
    7     8	 1 ;      CG2R67     CG2R61
    8     9	 1 ;      CG2R61     CG2R61
    8    37	 1 ;      CG2R61      HGR61
    9    38	 1 ;      CG2R61      HGR61
   10    11	 1 ;      CG2R67     CG2R61
   10    15	 1 ;      CG2R67     CG2R61
   11    12	 1 ;      CG2R61     CG2R61
   11    39	 1 ;      CG2R61      HGR61
   12    16	 1 ;      CG2R61      CG321
   12    13	 1 ;      CG2R61     CG2R61
   13    14	 1 ;      CG2R61     CG2R61
   13    40	 1 ;      CG2R61      HGR61
   14    15	 1 ;      CG2R61     CG2R61
   14    41	 1 ;      CG2R61      HGR61
   15    42	 1 ;      CG2R61      HGR61
   16    17	 1 ;       CG321      CG321
   16    43	 1 ;       CG321       HGA2
   16    44	 1 ;       CG321       HGA2
   17    18	 1 ;       CG321      CG331
   17    45	 1 ;       CG321       HGA2
   17    46	 1 ;       CG321       HGA2
   18    47	 1 ;       CG331       HGA3
   18    48	 1 ;       CG331       HGA3
   18    49	 1 ;       CG331       HGA3
   19    27	 1 ;      CG2D1O     CG2DC1
   19    20	 1 ;      CG2D1O      NG311
   20    22	 1 ;       NG311     HGPAM1
   20    21	 1 ;       NG311      CG314
   21    23	 1 ;       CG314      NG2S0
   21    28	 1 ;       CG314      NG3P3
   21    50	 1 ;       CG314       HGA1
   23    24	 1 ;       NG2S0      CG2O1
   23    25	 1 ;       NG2S0      CG331
   24    27	 1 ;       CG2O1     CG2DC1
   24    26	 1 ;       CG2O1      OG2D1
   25    51	 1 ;       CG331       HGA3
   25    52	 1 ;       CG331       HGA3
   25    53	 1 ;       CG331       HGA3
   27    54	 1 ;      CG2DC1       HGA4
   28    30	 1 ;       NG3P3       HGP2
   28    29	 1 ;       NG3P3       HGP2
   28    55	 1 ;       NG3P3       HGP2

[ pairs ]
;	ai	  aj funct			  c0			c1			  c2			c3
    1     9	 1
    1     5	 1
    1    24	 1
    1    54	 1
    1    22	 1
    1    21	 1
    2    27	 1
    2    20	 1
    2     9	 1
    2     5	 1
    3    27	 1
    3    20	 1
    3     8	 1
    3    38	 1
    3     6	 1
    3    35	 1
    4    19	 1
    4    31	 1
    4    32	 1
    4    33	 1
    4     7	 1
    4    36	 1
    4    37	 1
    5    34	 1
    5     8	 1
    5    38	 1
    5    10	 1
    6     9	 1
    6    11	 1
    6    15	 1
    6    37	 1
    7    35	 1
    7    38	 1
    7    12	 1
    7    39	 1
    7    14	 1
    7    42	 1
    8    36	 1
    8    11	 1
    8    15	 1
    9    34	 1
    9    35	 1
    9    10	 1
   10    36	 1
   10    37	 1
   10    16	 1
   10    13	 1
   10    41	 1
   11    14	 1
   11    42	 1
   11    17	 1
   11    43	 1
   11    44	 1
   11    40	 1
   12    15	 1
   12    41	 1
   12    18	 1
   12    45	 1
   12    46	 1
   13    39	 1
   13    17	 1
   13    43	 1
   13    44	 1
   13    42	 1
   14    16	 1
   15    39	 1
   15    40	 1
   16    39	 1
   16    40	 1
   16    47	 1
   16    48	 1
   16    49	 1
   18    43	 1
   18    44	 1
   19    34	 1
   19    32	 1
   19    33	 1
   19    23	 1
   19    28	 1
   19    50	 1
   19    26	 1
   20    31	 1
   20    24	 1
   20    54	 1
   20    25	 1
   20    30	 1
   20    29	 1
   20    55	 1
   21    27	 1
   21    26	 1
   21    51	 1
   21    52	 1
   21    53	 1
   22    27	 1
   22    23	 1
   22    28	 1
   22    50	 1
   23    30	 1
   23    29	 1
   23    55	 1
   23    54	 1
   24    28	 1
   24    50	 1
   24    51	 1
   24    52	 1
   24    53	 1
   25    28	 1
   25    50	 1
   25    27	 1
   25    26	 1
   26    54	 1
   27    31	 1
   29    50	 1
   30    50	 1
   31    34	 1
   31    32	 1
   31    33	 1
   32    34	 1
   33    34	 1
   35    36	 1
   37    38	 1
   40    41	 1
   41    42	 1
   43    45	 1
   43    46	 1
   44    45	 1
   44    46	 1
   45    47	 1
   45    48	 1
   45    49	 1
   46    47	 1
   46    48	 1
   46    49	 1
   50    55	 1

[ angles ]
;	ai	  aj	ak funct			c0			  c1			c2			  c3
    3     1     2	5 ;     CG3C31     CG3C31     CG3C31
    3     1    19	5 ;     CG3C31     CG3C31     CG2D1O
    3     1    31	5 ;     CG3C31     CG3C31       HGA1
    2     1    19	5 ;     CG3C31     CG3C31     CG2D1O
    2     1    31	5 ;     CG3C31     CG3C31       HGA1
   19     1    31	5 ;     CG2D1O     CG3C31       HGA1
    3     2     1	5 ;     CG3C31     CG3C31     CG3C31
    3     2    32	5 ;     CG3C31     CG3C31       HGA2
    3     2    33	5 ;     CG3C31     CG3C31       HGA2
    1     2    32	5 ;     CG3C31     CG3C31       HGA2
    1     2    33	5 ;     CG3C31     CG3C31       HGA2
   32     2    33	5 ;       HGA2     CG3C31       HGA2
    4     3     2	5 ;     CG2R61     CG3C31     CG3C31
    4     3     1	5 ;     CG2R61     CG3C31     CG3C31
    4     3    34	5 ;     CG2R61     CG3C31       HGA1
    2     3     1	5 ;     CG3C31     CG3C31     CG3C31
    2     3    34	5 ;     CG3C31     CG3C31       HGA1
    1     3    34	5 ;     CG3C31     CG3C31       HGA1
    9     4     5	5 ;     CG2R61     CG2R61     CG2R61
    9     4     3	5 ;     CG2R61     CG2R61     CG3C31
    5     4     3	5 ;     CG2R61     CG2R61     CG3C31
    6     5     4	5 ;     CG2R61     CG2R61     CG2R61
    6     5    35	5 ;     CG2R61     CG2R61      HGR61
    4     5    35	5 ;     CG2R61     CG2R61      HGR61
    7     6     5	5 ;     CG2R67     CG2R61     CG2R61
    7     6    36	5 ;     CG2R67     CG2R61      HGR61
    5     6    36	5 ;     CG2R61     CG2R61      HGR61
   10     7     8	5 ;     CG2R67     CG2R67     CG2R61
   10     7     6	5 ;     CG2R67     CG2R67     CG2R61
    8     7     6	5 ;     CG2R61     CG2R67     CG2R61
    7     8     9	5 ;     CG2R67     CG2R61     CG2R61
    7     8    37	5 ;     CG2R67     CG2R61      HGR61
    9     8    37	5 ;     CG2R61     CG2R61      HGR61
    8     9     4	5 ;     CG2R61     CG2R61     CG2R61
    8     9    38	5 ;     CG2R61     CG2R61      HGR61
    4     9    38	5 ;     CG2R61     CG2R61      HGR61
   11    10    15	5 ;     CG2R61     CG2R67     CG2R61
   11    10     7	5 ;     CG2R61     CG2R67     CG2R67
   15    10     7	5 ;     CG2R61     CG2R67     CG2R67
   12    11    10	5 ;     CG2R61     CG2R61     CG2R67
   12    11    39	5 ;     CG2R61     CG2R61      HGR61
   10    11    39	5 ;     CG2R67     CG2R61      HGR61
   16    12    13	5 ;      CG321     CG2R61     CG2R61
   16    12    11	5 ;      CG321     CG2R61     CG2R61
   13    12    11	5 ;     CG2R61     CG2R61     CG2R61
   12    13    14	5 ;     CG2R61     CG2R61     CG2R61
   12    13    40	5 ;     CG2R61     CG2R61      HGR61
   14    13    40	5 ;     CG2R61     CG2R61      HGR61
   13    14    15	5 ;     CG2R61     CG2R61     CG2R61
   13    14    41	5 ;     CG2R61     CG2R61      HGR61
   15    14    41	5 ;     CG2R61     CG2R61      HGR61
   14    15    10	5 ;     CG2R61     CG2R61     CG2R67
   14    15    42	5 ;     CG2R61     CG2R61      HGR61
   10    15    42	5 ;     CG2R67     CG2R61      HGR61
   17    16    12	5 ;      CG321      CG321     CG2R61
   17    16    43	5 ;      CG321      CG321       HGA2
   17    16    44	5 ;      CG321      CG321       HGA2
   12    16    43	5 ;     CG2R61      CG321       HGA2
   12    16    44	5 ;     CG2R61      CG321       HGA2
   43    16    44	5 ;       HGA2      CG321       HGA2
   16    17    18	5 ;      CG321      CG321      CG331
   16    17    45	5 ;      CG321      CG321       HGA2
   16    17    46	5 ;      CG321      CG321       HGA2
   18    17    45	5 ;      CG331      CG321       HGA2
   18    17    46	5 ;      CG331      CG321       HGA2
   45    17    46	5 ;       HGA2      CG321       HGA2
   17    18    47	5 ;      CG321      CG331       HGA3
   17    18    48	5 ;      CG321      CG331       HGA3
   17    18    49	5 ;      CG321      CG331       HGA3
   47    18    48	5 ;       HGA3      CG331       HGA3
   47    18    49	5 ;       HGA3      CG331       HGA3
   48    18    49	5 ;       HGA3      CG331       HGA3
    1    19    27	5 ;     CG3C31     CG2D1O     CG2DC1
    1    19    20	5 ;     CG3C31     CG2D1O      NG311
   27    19    20	5 ;     CG2DC1     CG2D1O      NG311
   19    20    22	5 ;     CG2D1O      NG311     HGPAM1
   19    20    21	5 ;     CG2D1O      NG311      CG314
   22    20    21	5 ;     HGPAM1      NG311      CG314
   20    21    23	5 ;      NG311      CG314      NG2S0
   20    21    28	5 ;      NG311      CG314      NG3P3
   20    21    50	5 ;      NG311      CG314       HGA1
   23    21    28	5 ;      NG2S0      CG314      NG3P3
   23    21    50	5 ;      NG2S0      CG314       HGA1
   28    21    50	5 ;      NG3P3      CG314       HGA1
   24    23    21	5 ;      CG2O1      NG2S0      CG314
   24    23    25	5 ;      CG2O1      NG2S0      CG331
   21    23    25	5 ;      CG314      NG2S0      CG331
   27    24    26	5 ;     CG2DC1      CG2O1      OG2D1
   27    24    23	5 ;     CG2DC1      CG2O1      NG2S0
   26    24    23	5 ;      OG2D1      CG2O1      NG2S0
   23    25    51	5 ;      NG2S0      CG331       HGA3
   23    25    52	5 ;      NG2S0      CG331       HGA3
   23    25    53	5 ;      NG2S0      CG331       HGA3
   51    25    52	5 ;       HGA3      CG331       HGA3
   51    25    53	5 ;       HGA3      CG331       HGA3
   52    25    53	5 ;       HGA3      CG331       HGA3
   19    27    24	5 ;     CG2D1O     CG2DC1      CG2O1
   19    27    54	5 ;     CG2D1O     CG2DC1       HGA4
   24    27    54	5 ;      CG2O1     CG2DC1       HGA4
   21    28    30	5 ;      CG314      NG3P3       HGP2
   21    28    29	5 ;      CG314      NG3P3       HGP2
   21    28    55	5 ;      CG314      NG3P3       HGP2
   30    28    29	5 ;       HGP2      NG3P3       HGP2
   30    28    55	5 ;       HGP2      NG3P3       HGP2
   29    28    55	5 ;       HGP2      NG3P3       HGP2

[ dihedrals ]
;	ai	  aj	ak	  al funct			  c0			c1			  c2			c3			  c4			c5
    2     1     3     4	 9 ;     CG3C31     CG3C31     CG3C31     CG2R61
    2     1     3    34	 9 ;     CG3C31     CG3C31     CG3C31       HGA1
   19     1     3     4	 9 ;     CG2D1O     CG3C31     CG3C31     CG2R61
   19     1     3     2	 9 ;     CG2D1O     CG3C31     CG3C31     CG3C31
   19     1     3    34	 9 ;     CG2D1O     CG3C31     CG3C31       HGA1
   31     1     3     4	 9 ;       HGA1     CG3C31     CG3C31     CG2R61
   31     1     3     2	 9 ;       HGA1     CG3C31     CG3C31     CG3C31
   31     1     3    34	 9 ;       HGA1     CG3C31     CG3C31       HGA1
    3     1     2    32	 9 ;     CG3C31     CG3C31     CG3C31       HGA2
    3     1     2    33	 9 ;     CG3C31     CG3C31     CG3C31       HGA2
   19     1     2     3	 9 ;     CG2D1O     CG3C31     CG3C31     CG3C31
   19     1     2    32	 9 ;     CG2D1O     CG3C31     CG3C31       HGA2
   19     1     2    33	 9 ;     CG2D1O     CG3C31     CG3C31       HGA2
   31     1     2     3	 9 ;       HGA1     CG3C31     CG3C31     CG3C31
   31     1     2    32	 9 ;       HGA1     CG3C31     CG3C31       HGA2
   31     1     2    33	 9 ;       HGA1     CG3C31     CG3C31       HGA2
    3     1    19    27	 9 ;     CG3C31     CG3C31     CG2D1O     CG2DC1
    3     1    19    20	 9 ;     CG3C31     CG3C31     CG2D1O      NG311
    2     1    19    27	 9 ;     CG3C31     CG3C31     CG2D1O     CG2DC1
    2     1    19    20	 9 ;     CG3C31     CG3C31     CG2D1O      NG311
   31     1    19    27	 9 ;       HGA1     CG3C31     CG2D1O     CG2DC1
   31     1    19    20	 9 ;       HGA1     CG3C31     CG2D1O      NG311
    1     2     3     4	 9 ;     CG3C31     CG3C31     CG3C31     CG2R61
    1     2     3    34	 9 ;     CG3C31     CG3C31     CG3C31       HGA1
   32     2     3     4	 9 ;       HGA2     CG3C31     CG3C31     CG2R61
   32     2     3     1	 9 ;       HGA2     CG3C31     CG3C31     CG3C31
   32     2     3    34	 9 ;       HGA2     CG3C31     CG3C31       HGA1
   33     2     3     4	 9 ;       HGA2     CG3C31     CG3C31     CG2R61
   33     2     3     1	 9 ;       HGA2     CG3C31     CG3C31     CG3C31
   33     2     3    34	 9 ;       HGA2     CG3C31     CG3C31       HGA1
    2     3     4     9	 9 ;     CG3C31     CG3C31     CG2R61     CG2R61
    2     3     4     5	 9 ;     CG3C31     CG3C31     CG2R61     CG2R61
    1     3     4     9	 9 ;     CG3C31     CG3C31     CG2R61     CG2R61
    1     3     4     5	 9 ;     CG3C31     CG3C31     CG2R61     CG2R61
   34     3     4     9	 9 ;       HGA1     CG3C31     CG2R61     CG2R61
   34     3     4     5	 9 ;       HGA1     CG3C31     CG2R61     CG2R61
    5     4     9     8	 9 ;     CG2R61     CG2R61     CG2R61     CG2R61
    5     4     9    38	 9 ;     CG2R61     CG2R61     CG2R61      HGR61
    3     4     9     8	 9 ;     CG3C31     CG2R61     CG2R61     CG2R61
    3     4     9    38	 9 ;     CG3C31     CG2R61     CG2R61      HGR61
    9     4     5     6	 9 ;     CG2R61     CG2R61     CG2R61     CG2R61
    9     4     5    35	 9 ;     CG2R61     CG2R61     CG2R61      HGR61
    3     4     5     6	 9 ;     CG3C31     CG2R61     CG2R61     CG2R61
    3     4     5    35	 9 ;     CG3C31     CG2R61     CG2R61      HGR61
    4     5     6     7	 9 ;     CG2R61     CG2R61     CG2R61     CG2R67
    4     5     6    36	 9 ;     CG2R61     CG2R61     CG2R61      HGR61
   35     5     6     7	 9 ;      HGR61     CG2R61     CG2R61     CG2R67
   35     5     6    36	 9 ;      HGR61     CG2R61     CG2R61      HGR61
    5     6     7    10	 9 ;     CG2R61     CG2R61     CG2R67     CG2R67
    5     6     7     8	 9 ;     CG2R61     CG2R61     CG2R67     CG2R61
   36     6     7    10	 9 ;      HGR61     CG2R61     CG2R67     CG2R67
   36     6     7     8	 9 ;      HGR61     CG2R61     CG2R67     CG2R61
    8     7    10    11	 9 ;     CG2R61     CG2R67     CG2R67     CG2R61
    8     7    10    15	 9 ;     CG2R61     CG2R67     CG2R67     CG2R61
    6     7    10    11	 9 ;     CG2R61     CG2R67     CG2R67     CG2R61
    6     7    10    15	 9 ;     CG2R61     CG2R67     CG2R67     CG2R61
   10     7     8     9	 9 ;     CG2R67     CG2R67     CG2R61     CG2R61
   10     7     8    37	 9 ;     CG2R67     CG2R67     CG2R61      HGR61
    6     7     8     9	 9 ;     CG2R61     CG2R67     CG2R61     CG2R61
    6     7     8    37	 9 ;     CG2R61     CG2R67     CG2R61      HGR61
    7     8     9     4	 9 ;     CG2R67     CG2R61     CG2R61     CG2R61
    7     8     9    38	 9 ;     CG2R67     CG2R61     CG2R61      HGR61
   37     8     9     4	 9 ;      HGR61     CG2R61     CG2R61     CG2R61
   37     8     9    38	 9 ;      HGR61     CG2R61     CG2R61      HGR61
   15    10    11    12	 9 ;     CG2R61     CG2R67     CG2R61     CG2R61
   15    10    11    39	 9 ;     CG2R61     CG2R67     CG2R61      HGR61
    7    10    11    12	 9 ;     CG2R67     CG2R67     CG2R61     CG2R61
    7    10    11    39	 9 ;     CG2R67     CG2R67     CG2R61      HGR61
   11    10    15    14	 9 ;     CG2R61     CG2R67     CG2R61     CG2R61
   11    10    15    42	 9 ;     CG2R61     CG2R67     CG2R61      HGR61
    7    10    15    14	 9 ;     CG2R67     CG2R67     CG2R61     CG2R61
    7    10    15    42	 9 ;     CG2R67     CG2R67     CG2R61      HGR61
   10    11    12    16	 9 ;     CG2R67     CG2R61     CG2R61      CG321
   10    11    12    13	 9 ;     CG2R67     CG2R61     CG2R61     CG2R61
   39    11    12    16	 9 ;      HGR61     CG2R61     CG2R61      CG321
   39    11    12    13	 9 ;      HGR61     CG2R61     CG2R61     CG2R61
   13    12    16    17	 9 ;     CG2R61     CG2R61      CG321      CG321
   13    12    16    43	 9 ;     CG2R61     CG2R61      CG321       HGA2
   13    12    16    44	 9 ;     CG2R61     CG2R61      CG321       HGA2
   11    12    16    17	 9 ;     CG2R61     CG2R61      CG321      CG321
   11    12    16    43	 9 ;     CG2R61     CG2R61      CG321       HGA2
   11    12    16    44	 9 ;     CG2R61     CG2R61      CG321       HGA2
   16    12    13    14	 9 ;      CG321     CG2R61     CG2R61     CG2R61
   16    12    13    40	 9 ;      CG321     CG2R61     CG2R61      HGR61
   11    12    13    14	 9 ;     CG2R61     CG2R61     CG2R61     CG2R61
   11    12    13    40	 9 ;     CG2R61     CG2R61     CG2R61      HGR61
   12    13    14    15	 9 ;     CG2R61     CG2R61     CG2R61     CG2R61
   12    13    14    41	 9 ;     CG2R61     CG2R61     CG2R61      HGR61
   40    13    14    15	 9 ;      HGR61     CG2R61     CG2R61     CG2R61
   40    13    14    41	 9 ;      HGR61     CG2R61     CG2R61      HGR61
   13    14    15    10	 9 ;     CG2R61     CG2R61     CG2R61     CG2R67
   13    14    15    42	 9 ;     CG2R61     CG2R61     CG2R61      HGR61
   41    14    15    10	 9 ;      HGR61     CG2R61     CG2R61     CG2R67
   41    14    15    42	 9 ;      HGR61     CG2R61     CG2R61      HGR61
   12    16    17    18	 9 ;     CG2R61      CG321      CG321      CG331
   12    16    17    45	 9 ;     CG2R61      CG321      CG321       HGA2
   12    16    17    46	 9 ;     CG2R61      CG321      CG321       HGA2
   43    16    17    18	 9 ;       HGA2      CG321      CG321      CG331
   43    16    17    45	 9 ;       HGA2      CG321      CG321       HGA2
   43    16    17    46	 9 ;       HGA2      CG321      CG321       HGA2
   44    16    17    18	 9 ;       HGA2      CG321      CG321      CG331
   44    16    17    45	 9 ;       HGA2      CG321      CG321       HGA2
   44    16    17    46	 9 ;       HGA2      CG321      CG321       HGA2
   16    17    18    47	 9 ;      CG321      CG321      CG331       HGA3
   16    17    18    48	 9 ;      CG321      CG321      CG331       HGA3
   16    17    18    49	 9 ;      CG321      CG321      CG331       HGA3
   45    17    18    47	 9 ;       HGA2      CG321      CG331       HGA3
   45    17    18    48	 9 ;       HGA2      CG321      CG331       HGA3
   45    17    18    49	 9 ;       HGA2      CG321      CG331       HGA3
   46    17    18    47	 9 ;       HGA2      CG321      CG331       HGA3
   46    17    18    48	 9 ;       HGA2      CG321      CG331       HGA3
   46    17    18    49	 9 ;       HGA2      CG321      CG331       HGA3
    1    19    27    24	 9 ;     CG3C31     CG2D1O     CG2DC1      CG2O1
    1    19    27    54	 9 ;     CG3C31     CG2D1O     CG2DC1       HGA4
   20    19    27    24	 9 ;      NG311     CG2D1O     CG2DC1      CG2O1
   20    19    27    54	 9 ;      NG311     CG2D1O     CG2DC1       HGA4
    1    19    20    22	 9 ;     CG3C31     CG2D1O      NG311     HGPAM1
    1    19    20    21	 9 ;     CG3C31     CG2D1O      NG311      CG314
   27    19    20    22	 9 ;     CG2DC1     CG2D1O      NG311     HGPAM1
   27    19    20    21	 9 ;     CG2DC1     CG2D1O      NG311      CG314
   19    20    21    23	 9 ;     CG2D1O      NG311      CG314      NG2S0
   19    20    21    28	 9 ;     CG2D1O      NG311      CG314      NG3P3
   19    20    21    50	 9 ;     CG2D1O      NG311      CG314       HGA1
   22    20    21    23	 9 ;     HGPAM1      NG311      CG314      NG2S0
   22    20    21    28	 9 ;     HGPAM1      NG311      CG314      NG3P3
   22    20    21    50	 9 ;     HGPAM1      NG311      CG314       HGA1
   20    21    23    24	 9 ;      NG311      CG314      NG2S0      CG2O1
   20    21    23    25	 9 ;      NG311      CG314      NG2S0      CG331
   28    21    23    24	 9 ;      NG3P3      CG314      NG2S0      CG2O1
   28    21    23    25	 9 ;      NG3P3      CG314      NG2S0      CG331
   50    21    23    24	 9 ;       HGA1      CG314      NG2S0      CG2O1
   50    21    23    25	 9 ;       HGA1      CG314      NG2S0      CG331
   20    21    28    30	 9 ;      NG311      CG314      NG3P3       HGP2
   20    21    28    29	 9 ;      NG311      CG314      NG3P3       HGP2
   20    21    28    55	 9 ;      NG311      CG314      NG3P3       HGP2
   23    21    28    30	 9 ;      NG2S0      CG314      NG3P3       HGP2
   23    21    28    29	 9 ;      NG2S0      CG314      NG3P3       HGP2
   23    21    28    55	 9 ;      NG2S0      CG314      NG3P3       HGP2
   50    21    28    30	 9 ;       HGA1      CG314      NG3P3       HGP2
   50    21    28    29	 9 ;       HGA1      CG314      NG3P3       HGP2
   50    21    28    55	 9 ;       HGA1      CG314      NG3P3       HGP2
   21    23    24    27	 9 ;      CG314      NG2S0      CG2O1     CG2DC1
   21    23    24    26	 9 ;      CG314      NG2S0      CG2O1      OG2D1
   25    23    24    27	 9 ;      CG331      NG2S0      CG2O1     CG2DC1
   25    23    24    26	 9 ;      CG331      NG2S0      CG2O1      OG2D1
   24    23    25    51	 9 ;      CG2O1      NG2S0      CG331       HGA3
   24    23    25    52	 9 ;      CG2O1      NG2S0      CG331       HGA3
   24    23    25    53	 9 ;      CG2O1      NG2S0      CG331       HGA3
   21    23    25    51	 9 ;      CG314      NG2S0      CG331       HGA3
   21    23    25    52	 9 ;      CG314      NG2S0      CG331       HGA3
   21    23    25    53	 9 ;      CG314      NG2S0      CG331       HGA3
   26    24    27    19	 9 ;      OG2D1      CG2O1     CG2DC1     CG2D1O
   26    24    27    54	 9 ;      OG2D1      CG2O1     CG2DC1       HGA4
   23    24    27    19	 9 ;      NG2S0      CG2O1     CG2DC1     CG2D1O
   23    24    27    54	 9 ;      NG2S0      CG2O1     CG2DC1       HGA4

[ dihedrals ]
;	ai	  aj	ak	  al funct			  c0			c1			  c2			c3
   19    27     1    20	 2
   24    27    23    26	 2

