Grunge ROck MAChoS
   55
    1LIG     C1    1  -1.997   0.415  -1.705
    1LIG     C2    2  -1.932   0.336  -1.814
    1LIG     C3    3  -1.850   0.435  -1.732
    1LIG     C4    4  -1.730   0.369  -1.670
    1LIG     C5    5  -1.702   0.399  -1.535
    1LIG     C6    6  -1.580   0.364  -1.478
    1LIG     C7    7  -1.484   0.293  -1.551
    1LIG     C8    8  -1.518   0.250  -1.680
    1LIG     C9    9  -1.640   0.287  -1.738
    1LIG    C10   10  -1.348   0.278  -1.494
    1LIG    C11   11  -1.270   0.166  -1.527
    1LIG    C12   12  -1.149   0.138  -1.462
    1LIG    C13   13  -1.104   0.225  -1.362
    1LIG    C14   14  -1.178   0.339  -1.331
    1LIG    C15   15  -1.298   0.366  -1.397
    1LIG    C16   16  -1.071   0.015  -1.502
    1LIG    C17   17  -1.041  -0.083  -1.388
    1LIG    C18   18  -1.165  -0.122  -1.308
    1LIG    C19   19  -2.056   0.350  -1.587
    1LIG     N1   20  -2.123   0.436  -1.504
    1LIG    C20   21  -2.206   0.387  -1.416
    1LIG     HN   22  -2.108   0.537  -1.511
    1LIG     N2   23  -2.228   0.252  -1.400
    1LIG    C21   24  -2.151   0.161  -1.469
    1LIG    C22   25  -2.331   0.201  -1.310
    1LIG      O   26  -2.156   0.039  -1.454
    1LIG    C23   27  -2.062   0.217  -1.571
    1LIG     N3   28  -2.272   0.477  -1.338
    1LIG     H1   29  -2.368   0.448  -1.321
    1LIG     H2   30  -2.226   0.512  -1.255
    1LIG     HC   31  -2.058   0.496  -1.743
    1LIG    HC2   32  -1.956   0.357  -1.918
    1LIG    HC3   33  -1.915   0.230  -1.791
    1LIG    HC1   34  -1.827   0.527  -1.785
    1LIG    HC4   35  -1.776   0.450  -1.476
    1LIG    HC5   36  -1.560   0.392  -1.375
    1LIG    HC6   37  -1.449   0.188  -1.735
    1LIG    HC7   38  -1.665   0.251  -1.837
    1LIG    HC8   39  -1.303   0.100  -1.606
    1LIG    HC9   40  -1.013   0.203  -1.309
    1LIG   HC10   41  -1.141   0.407  -1.255
    1LIG   HC11   42  -1.353   0.455  -1.372
    1LIG   HC12   43  -0.975   0.048  -1.543
    1LIG   HC13   44  -1.126  -0.038  -1.579
    1LIG   HC14   45  -0.998  -0.174  -1.431
    1LIG   HC15   46  -0.969  -0.038  -1.321
    1LIG   HC16   47  -1.137  -0.191  -1.229
    1LIG   HC17   48  -1.209  -0.032  -1.263
    1LIG   HC18   49  -1.238  -0.169  -1.374
    1LIG   HC19   50  -2.126   0.383  -1.343
    1LIG   HC20   51  -2.331   0.092  -1.313
    1LIG   HC21   52  -2.428   0.239  -1.341
    1LIG   HC22   53  -2.309   0.235  -1.209
    1LIG   HC23   54  -2.002   0.152  -1.633
    1LIG    HN1   55  -2.282   0.559  -1.397
   0.00000   0.00000   0.00000
