Georgetown Riga Oslo Madrid Amsterdam Chisinau Stockholm
   78
    1LIG     N1    1  -1.476   0.244  -1.441
    1LIG     H1    2  -1.481   0.345  -1.423
    1LIG     H2    3  -1.529   0.200  -1.365
    1LIG     C1    4  -1.566   0.220  -1.567
    1LIG     C2    5  -1.593   0.345  -1.657
    1LIG     C3    6  -1.631   0.483  -1.582
    1LIG     N2    7  -1.702   0.471  -1.453
    1LIG     C4    8  -1.817   0.548  -1.432
    1LIG     O1    9  -1.872   0.609  -1.524
    1LIG     C5   10  -1.869   0.554  -1.290
    1LIG     H3   11  -1.647   0.453  -1.369
    1LIG     C6   12  -1.504   0.575  -1.560
    1LIG     C7   13  -1.518   0.701  -1.643
    1LIG     C8   14  -1.438   0.715  -1.757
    1LIG     C9   15  -1.421   0.841  -1.814
    1LIG     F1   16  -1.335   0.856  -1.916
    1LIG    C10   17  -1.485   0.953  -1.762
    1LIG    C11   18  -1.573   0.936  -1.655
    1LIG    C12   19  -1.591   0.811  -1.596
    1LIG     F2   20  -1.630   1.043  -1.599
    1LIG     O2   21  -1.482   0.364  -1.746
    1LIG     H4   22  -1.411   0.303  -1.717
    1LIG    C13   23  -1.328   0.198  -1.411
    1LIG    C14   24  -1.324   0.043  -1.401
    1LIG    C15   25  -1.184  -0.010  -1.362
    1LIG    C16   26  -1.136   0.048  -1.230
    1LIG    C17   27  -1.146   0.200  -1.227
    1LIG    C18   28  -1.285   0.251  -1.270
    1LIG    C19   29  -1.230   0.252  -1.526
    1LIG    C20   30  -1.195   0.390  -1.540
    1LIG    C21   31  -1.114   0.440  -1.647
    1LIG    C22   32  -1.069   0.349  -1.744
    1LIG    C23   33  -1.098   0.213  -1.732
    1LIG    C24   34  -1.176   0.166  -1.624
    1LIG    C25   35  -1.060   0.585  -1.656
    1LIG    C26   36  -0.909   0.597  -1.630
    1LIG    C27   37  -1.087   0.634  -1.801
    1LIG    C28   38  -1.130   0.685  -1.560
    1LIG    C29   39  -1.044   0.116  -1.832
    1LIG     O3   40  -0.950   0.043  -1.798
    1LIG    C30   41  -1.100   0.111  -1.972
    1LIG    HC2   42  -1.519   0.144  -1.630
    1LIG    HC3   43  -1.663   0.181  -1.534
    1LIG     HC   44  -1.678   0.321  -1.720
    1LIG    HC1   45  -1.697   0.537  -1.649
    1LIG    HC4   46  -1.497   0.602  -1.455
    1LIG    HC5   47  -1.414   0.521  -1.590
    1LIG    HC6   48  -1.389   0.629  -1.801
    1LIG    HC7   49  -1.468   1.051  -1.803
    1LIG    HC8   50  -1.661   0.799  -1.515
    1LIG    HC9   51  -1.351   0.002  -1.498
    1LIG   HC10   52  -1.396   0.010  -1.327
    1LIG   HC11   53  -1.190  -0.119  -1.353
    1LIG   HC12   54  -1.113   0.016  -1.441
    1LIG   HC13   55  -1.031   0.019  -1.215
    1LIG   HC14   56  -1.196   0.007  -1.148
    1LIG   HC15   57  -1.126   0.235  -1.125
    1LIG   HC16   58  -1.070   0.242  -1.294
    1LIG   HC17   59  -1.359   0.217  -1.197
    1LIG   HC18   60  -1.284   0.360  -1.272
    1LIG   HC19   61  -1.232   0.460  -1.467
    1LIG   HC20   62  -1.010   0.384  -1.828
    1LIG   HC21   63  -1.194   0.060  -1.615
    1LIG   HC22   64  -1.039   0.567  -1.872
    1LIG   HC23   65  -1.194   0.636  -1.820
    1LIG   HC24   66  -1.046   0.734  -1.814
    1LIG   HC25   67  -1.959   0.617  -1.287
    1LIG   HC26   68  -1.893   0.454  -1.255
    1LIG   HC27   69  -1.793   0.598  -1.225
    1LIG   HC28   70  -1.048   0.034  -2.030
    1LIG   HC29   71  -1.207   0.086  -1.968
    1LIG   HC30   72  -1.087   0.207  -2.021
    1LIG   HC31   73  -0.855   0.529  -1.696
    1LIG   HC32   74  -0.876   0.699  -1.650
    1LIG   HC33   75  -0.888   0.572  -1.526
    1LIG   HC34   76  -1.238   0.680  -1.575
    1LIG   HC35   77  -1.095   0.786  -1.581
    1LIG   HC36   78  -1.107   0.658  -1.457
   0.00000   0.00000   0.00000
