; Created by cgenff_charmm2gmx.py

[ moleculetype ]
; Name			   nrexcl
LIG				 3

[ atoms ]
;	 nr		  type	resnr residue  atom   cgnr	   charge		mass  typeB    chargeB		massB
; residue	 1 LIG rtp LIG q	qsum
     1      NG3P2      1    LIG     N1      1     -0.450     14.007   ;
     2       HGP2      1    LIG     H1      2      0.341      1.008   ;
     3       HGP2      1    LIG     H2      3      0.341      1.008   ;
     4      CG324      1    LIG     C1      4      0.208     12.011   ;
     5      CG311      1    LIG     C2      5      0.089     12.011   ;
     6      CG311      1    LIG     C3      6     -0.007     12.011   ;
     7      NG2S1      1    LIG     N2      7     -0.339     14.007   ;
     8      CG2O1      1    LIG     C4      8      0.488     12.011   ;
     9      OG2D1      1    LIG     O1      9     -0.509     15.999   ;
    10      CG331      1    LIG     C5     10     -0.270     12.011   ;
    11       HGP1      1    LIG     H3     11      0.261      1.008   ;
    12      CG321      1    LIG     C6     12     -0.153     12.011   ;
    13     CG2R61      1    LIG     C7     13      0.057     12.011   ;
    14     CG2R61      1    LIG     C8     14     -0.218     12.011   ;
    15     CG2R66      1    LIG     C9     15      0.261     12.011   ;
    16       FGR1      1    LIG     F1     16     -0.210     18.998   ;
    17     CG2R61      1    LIG    C10     17     -0.240     12.011   ;
    18     CG2R66      1    LIG    C11     18      0.261     12.011   ;
    19     CG2R61      1    LIG    C12     19     -0.218     12.011   ;
    20       FGR1      1    LIG     F2     20     -0.210     18.998   ;
    21      OG311      1    LIG     O2     21     -0.625     15.999   ;
    22       HGP1      1    LIG     H4     22      0.415      1.008   ;
    23      CG301      1    LIG    C13     23      0.295     12.011   ;
    24      CG321      1    LIG    C14     24     -0.147     12.011   ;
    25      CG321      1    LIG    C15     25     -0.202     12.011   ;
    26      CG321      1    LIG    C16     26     -0.176     12.011   ;
    27      CG321      1    LIG    C17     27     -0.202     12.011   ;
    28      CG321      1    LIG    C18     28     -0.147     12.011   ;
    29     CG2R61      1    LIG    C19     29      0.090     12.011   ;
    30     CG2R61      1    LIG    C20     30     -0.134     12.011   ;
    31     CG2R61      1    LIG    C21     31      0.087     12.011   ;
    32     CG2R61      1    LIG    C22     32     -0.126     12.011   ;
    33     CG2R61      1    LIG    C23     33      0.074     12.011   ;
    34     CG2R61      1    LIG    C24     34     -0.134     12.011   ;
    35      CG301      1    LIG    C25     35     -0.018     12.011   ;
    36      CG331      1    LIG    C26     36     -0.289     12.011   ;
    37      CG331      1    LIG    C27     37     -0.289     12.011   ;
    38      CG331      1    LIG    C28     38     -0.289     12.011   ;
    39      CG2O5      1    LIG    C29     39      0.360     12.011   ;
    40      OG2D3      1    LIG     O3     40     -0.466     15.999   ;
    41      CG331      1    LIG    C30     41     -0.232     12.011   ;
    42       HGA2      1    LIG    HC2     42      0.090      1.008   ;
    43       HGA2      1    LIG    HC3     43      0.090      1.008   ;
    44       HGA1      1    LIG     HC     44      0.090      1.008   ;
    45       HGA1      1    LIG    HC1     45      0.090      1.008   ;
    46       HGA2      1    LIG    HC4     46      0.090      1.008   ;
    47       HGA2      1    LIG    HC5     47      0.090      1.008   ;
    48      HGR62      1    LIG    HC6     48      0.174      1.008   ;
    49      HGR62      1    LIG    HC7     49      0.186      1.008   ;
    50      HGR62      1    LIG    HC8     50      0.174      1.008   ;
    51       HGA2      1    LIG    HC9     51      0.090      1.008   ;
    52       HGA2      1    LIG   HC10     52      0.090      1.008   ;
    53       HGA2      1    LIG   HC11     53      0.090      1.008   ;
    54       HGA2      1    LIG   HC12     54      0.090      1.008   ;
    55       HGA2      1    LIG   HC13     55      0.090      1.008   ;
    56       HGA2      1    LIG   HC14     56      0.090      1.008   ;
    57       HGA2      1    LIG   HC15     57      0.090      1.008   ;
    58       HGA2      1    LIG   HC16     58      0.090      1.008   ;
    59       HGA2      1    LIG   HC17     59      0.090      1.008   ;
    60       HGA2      1    LIG   HC18     60      0.090      1.008   ;
    61      HGR61      1    LIG   HC19     61      0.116      1.008   ;
    62      HGR61      1    LIG   HC20     62      0.116      1.008   ;
    63      HGR61      1    LIG   HC21     63      0.116      1.008   ;
    64       HGA3      1    LIG   HC22     64      0.090      1.008   ;
    65       HGA3      1    LIG   HC23     65      0.090      1.008   ;
    66       HGA3      1    LIG   HC24     66      0.090      1.008   ;
    67       HGA3      1    LIG   HC25     67      0.090      1.008   ;
    68       HGA3      1    LIG   HC26     68      0.090      1.008   ;
    69       HGA3      1    LIG   HC27     69      0.090      1.008   ;
    70       HGA3      1    LIG   HC28     70      0.090      1.008   ;
    71       HGA3      1    LIG   HC29     71      0.090      1.008   ;
    72       HGA3      1    LIG   HC30     72      0.090      1.008   ;
    73       HGA3      1    LIG   HC31     73      0.090      1.008   ;
    74       HGA3      1    LIG   HC32     74      0.090      1.008   ;
    75       HGA3      1    LIG   HC33     75      0.090      1.008   ;
    76       HGA3      1    LIG   HC34     76      0.090      1.008   ;
    77       HGA3      1    LIG   HC35     77      0.090      1.008   ;
    78       HGA3      1    LIG   HC36     78      0.090      1.008   ;

[ bonds ]
;	ai	  aj funct			  c0			c1			  c2			c3
    1    23	 1 ;       NG3P2      CG301
    1     4	 1 ;       NG3P2      CG324
    1     2	 1 ;       NG3P2       HGP2
    1     3	 1 ;       NG3P2       HGP2
    4     5	 1 ;       CG324      CG311
    4    42	 1 ;       CG324       HGA2
    4    43	 1 ;       CG324       HGA2
    5    21	 1 ;       CG311      OG311
    5     6	 1 ;       CG311      CG311
    5    44	 1 ;       CG311       HGA1
    6    12	 1 ;       CG311      CG321
    6     7	 1 ;       CG311      NG2S1
    6    45	 1 ;       CG311       HGA1
    7    11	 1 ;       NG2S1       HGP1
    7     8	 1 ;       NG2S1      CG2O1
    8     9	 1 ;       CG2O1      OG2D1
    8    10	 1 ;       CG2O1      CG331
   10    67	 1 ;       CG331       HGA3
   10    68	 1 ;       CG331       HGA3
   10    69	 1 ;       CG331       HGA3
   12    13	 1 ;       CG321     CG2R61
   12    46	 1 ;       CG321       HGA2
   12    47	 1 ;       CG321       HGA2
   13    14	 1 ;      CG2R61     CG2R61
   13    19	 1 ;      CG2R61     CG2R61
   14    15	 1 ;      CG2R61     CG2R66
   14    48	 1 ;      CG2R61      HGR62
   15    16	 1 ;      CG2R66       FGR1
   15    17	 1 ;      CG2R66     CG2R61
   17    18	 1 ;      CG2R61     CG2R66
   17    49	 1 ;      CG2R61      HGR62
   18    19	 1 ;      CG2R66     CG2R61
   18    20	 1 ;      CG2R66       FGR1
   19    50	 1 ;      CG2R61      HGR62
   21    22	 1 ;       OG311       HGP1
   23    29	 1 ;       CG301     CG2R61
   23    24	 1 ;       CG301      CG321
   23    28	 1 ;       CG301      CG321
   24    25	 1 ;       CG321      CG321
   24    51	 1 ;       CG321       HGA2
   24    52	 1 ;       CG321       HGA2
   25    26	 1 ;       CG321      CG321
   25    53	 1 ;       CG321       HGA2
   25    54	 1 ;       CG321       HGA2
   26    27	 1 ;       CG321      CG321
   26    55	 1 ;       CG321       HGA2
   26    56	 1 ;       CG321       HGA2
   27    28	 1 ;       CG321      CG321
   27    57	 1 ;       CG321       HGA2
   27    58	 1 ;       CG321       HGA2
   28    59	 1 ;       CG321       HGA2
   28    60	 1 ;       CG321       HGA2
   29    34	 1 ;      CG2R61     CG2R61
   29    30	 1 ;      CG2R61     CG2R61
   30    31	 1 ;      CG2R61     CG2R61
   30    61	 1 ;      CG2R61      HGR61
   31    32	 1 ;      CG2R61     CG2R61
   31    35	 1 ;      CG2R61      CG301
   32    33	 1 ;      CG2R61     CG2R61
   32    62	 1 ;      CG2R61      HGR61
   33    39	 1 ;      CG2R61      CG2O5
   33    34	 1 ;      CG2R61     CG2R61
   34    63	 1 ;      CG2R61      HGR61
   35    36	 1 ;       CG301      CG331
   35    37	 1 ;       CG301      CG331
   35    38	 1 ;       CG301      CG331
   36    73	 1 ;       CG331       HGA3
   36    74	 1 ;       CG331       HGA3
   36    75	 1 ;       CG331       HGA3
   37    64	 1 ;       CG331       HGA3
   37    65	 1 ;       CG331       HGA3
   37    66	 1 ;       CG331       HGA3
   38    76	 1 ;       CG331       HGA3
   38    77	 1 ;       CG331       HGA3
   38    78	 1 ;       CG331       HGA3
   39    40	 1 ;       CG2O5      OG2D3
   39    41	 1 ;       CG2O5      CG331
   41    70	 1 ;       CG331       HGA3
   41    71	 1 ;       CG331       HGA3
   41    72	 1 ;       CG331       HGA3

[ pairs ]
;	ai	  aj funct			  c0			c1			  c2			c3
    1    21	 1
    1     6	 1
    1    44	 1
    1    34	 1
    1    30	 1
    1    25	 1
    1    51	 1
    1    52	 1
    1    27	 1
    1    59	 1
    1    60	 1
    2    29	 1
    2    24	 1
    2    28	 1
    2     5	 1
    2    42	 1
    2    43	 1
    3    29	 1
    3    24	 1
    3    28	 1
    3     5	 1
    3    42	 1
    3    43	 1
    4    29	 1
    4    24	 1
    4    28	 1
    4    22	 1
    4    12	 1
    4     7	 1
    4    45	 1
    5    23	 1
    5    13	 1
    5    46	 1
    5    47	 1
    5    11	 1
    5     8	 1
    6    42	 1
    6    43	 1
    6    22	 1
    6     9	 1
    6    10	 1
    6    14	 1
    6    19	 1
    7    21	 1
    7    44	 1
    7    13	 1
    7    46	 1
    7    47	 1
    7    67	 1
    7    68	 1
    7    69	 1
    8    12	 1
    8    45	 1
    9    11	 1
    9    67	 1
    9    68	 1
    9    69	 1
   10    11	 1
   11    12	 1
   11    45	 1
   12    21	 1
   12    44	 1
   12    15	 1
   12    48	 1
   12    18	 1
   12    50	 1
   13    45	 1
   13    16	 1
   13    17	 1
   13    20	 1
   14    46	 1
   14    47	 1
   14    18	 1
   14    50	 1
   14    49	 1
   15    19	 1
   15    20	 1
   16    48	 1
   16    18	 1
   16    49	 1
   17    48	 1
   17    50	 1
   19    46	 1
   19    47	 1
   19    48	 1
   19    49	 1
   20    49	 1
   20    50	 1
   21    42	 1
   21    43	 1
   21    45	 1
   22    44	 1
   23    42	 1
   23    43	 1
   23    26	 1
   23    53	 1
   23    54	 1
   23    57	 1
   23    58	 1
   23    33	 1
   23    63	 1
   23    31	 1
   23    61	 1
   24    34	 1
   24    30	 1
   24    27	 1
   24    59	 1
   24    60	 1
   24    55	 1
   24    56	 1
   25    29	 1
   25    28	 1
   25    57	 1
   25    58	 1
   26    51	 1
   26    52	 1
   26    59	 1
   26    60	 1
   27    29	 1
   27    53	 1
   27    54	 1
   28    34	 1
   28    30	 1
   28    51	 1
   28    52	 1
   28    55	 1
   28    56	 1
   29    51	 1
   29    52	 1
   29    59	 1
   29    60	 1
   29    32	 1
   29    35	 1
   29    39	 1
   30    33	 1
   30    63	 1
   30    62	 1
   30    36	 1
   30    37	 1
   30    38	 1
   31    34	 1
   31    39	 1
   31    73	 1
   31    74	 1
   31    75	 1
   31    64	 1
   31    65	 1
   31    66	 1
   31    76	 1
   31    77	 1
   31    78	 1
   32    61	 1
   32    36	 1
   32    37	 1
   32    38	 1
   32    40	 1
   32    41	 1
   32    63	 1
   33    35	 1
   33    70	 1
   33    71	 1
   33    72	 1
   34    61	 1
   34    62	 1
   34    40	 1
   34    41	 1
   35    61	 1
   35    62	 1
   36    64	 1
   36    65	 1
   36    66	 1
   36    76	 1
   36    77	 1
   36    78	 1
   37    73	 1
   37    74	 1
   37    75	 1
   37    76	 1
   37    77	 1
   37    78	 1
   38    73	 1
   38    74	 1
   38    75	 1
   38    64	 1
   38    65	 1
   38    66	 1
   39    62	 1
   39    63	 1
   40    70	 1
   40    71	 1
   40    72	 1
   42    44	 1
   43    44	 1
   44    45	 1
   45    46	 1
   45    47	 1
   51    53	 1
   51    54	 1
   52    53	 1
   52    54	 1
   53    55	 1
   53    56	 1
   54    55	 1
   54    56	 1
   55    57	 1
   55    58	 1
   56    57	 1
   56    58	 1
   57    59	 1
   57    60	 1
   58    59	 1
   58    60	 1

[ angles ]
;	ai	  aj	ak funct			c0			  c1			c2			  c3
   23     1     4	5 ;      CG301      NG3P2      CG324
   23     1     2	5 ;      CG301      NG3P2       HGP2
   23     1     3	5 ;      CG301      NG3P2       HGP2
    4     1     2	5 ;      CG324      NG3P2       HGP2
    4     1     3	5 ;      CG324      NG3P2       HGP2
    2     1     3	5 ;       HGP2      NG3P2       HGP2
    5     4     1	5 ;      CG311      CG324      NG3P2
    5     4    42	5 ;      CG311      CG324       HGA2
    5     4    43	5 ;      CG311      CG324       HGA2
    1     4    42	5 ;      NG3P2      CG324       HGA2
    1     4    43	5 ;      NG3P2      CG324       HGA2
   42     4    43	5 ;       HGA2      CG324       HGA2
   21     5     4	5 ;      OG311      CG311      CG324
   21     5     6	5 ;      OG311      CG311      CG311
   21     5    44	5 ;      OG311      CG311       HGA1
    4     5     6	5 ;      CG324      CG311      CG311
    4     5    44	5 ;      CG324      CG311       HGA1
    6     5    44	5 ;      CG311      CG311       HGA1
    5     6    12	5 ;      CG311      CG311      CG321
    5     6     7	5 ;      CG311      CG311      NG2S1
    5     6    45	5 ;      CG311      CG311       HGA1
   12     6     7	5 ;      CG321      CG311      NG2S1
   12     6    45	5 ;      CG321      CG311       HGA1
    7     6    45	5 ;      NG2S1      CG311       HGA1
    6     7    11	5 ;      CG311      NG2S1       HGP1
    6     7     8	5 ;      CG311      NG2S1      CG2O1
   11     7     8	5 ;       HGP1      NG2S1      CG2O1
    7     8     9	5 ;      NG2S1      CG2O1      OG2D1
    7     8    10	5 ;      NG2S1      CG2O1      CG331
    9     8    10	5 ;      OG2D1      CG2O1      CG331
    8    10    67	5 ;      CG2O1      CG331       HGA3
    8    10    68	5 ;      CG2O1      CG331       HGA3
    8    10    69	5 ;      CG2O1      CG331       HGA3
   67    10    68	5 ;       HGA3      CG331       HGA3
   67    10    69	5 ;       HGA3      CG331       HGA3
   68    10    69	5 ;       HGA3      CG331       HGA3
   13    12     6	5 ;     CG2R61      CG321      CG311
   13    12    46	5 ;     CG2R61      CG321       HGA2
   13    12    47	5 ;     CG2R61      CG321       HGA2
    6    12    46	5 ;      CG311      CG321       HGA2
    6    12    47	5 ;      CG311      CG321       HGA2
   46    12    47	5 ;       HGA2      CG321       HGA2
   14    13    12	5 ;     CG2R61     CG2R61      CG321
   14    13    19	5 ;     CG2R61     CG2R61     CG2R61
   12    13    19	5 ;      CG321     CG2R61     CG2R61
   15    14    13	5 ;     CG2R66     CG2R61     CG2R61
   15    14    48	5 ;     CG2R66     CG2R61      HGR62
   13    14    48	5 ;     CG2R61     CG2R61      HGR62
   16    15    14	5 ;       FGR1     CG2R66     CG2R61
   16    15    17	5 ;       FGR1     CG2R66     CG2R61
   14    15    17	5 ;     CG2R61     CG2R66     CG2R61
   15    17    18	5 ;     CG2R66     CG2R61     CG2R66
   15    17    49	5 ;     CG2R66     CG2R61      HGR62
   18    17    49	5 ;     CG2R66     CG2R61      HGR62
   17    18    19	5 ;     CG2R61     CG2R66     CG2R61
   17    18    20	5 ;     CG2R61     CG2R66       FGR1
   19    18    20	5 ;     CG2R61     CG2R66       FGR1
   13    19    18	5 ;     CG2R61     CG2R61     CG2R66
   13    19    50	5 ;     CG2R61     CG2R61      HGR62
   18    19    50	5 ;     CG2R66     CG2R61      HGR62
   22    21     5	5 ;       HGP1      OG311      CG311
   29    23    24	5 ;     CG2R61      CG301      CG321
   29    23    28	5 ;     CG2R61      CG301      CG321
   29    23     1	5 ;     CG2R61      CG301      NG3P2
   24    23    28	5 ;      CG321      CG301      CG321
   24    23     1	5 ;      CG321      CG301      NG3P2
   28    23     1	5 ;      CG321      CG301      NG3P2
   25    24    23	5 ;      CG321      CG321      CG301
   25    24    51	5 ;      CG321      CG321       HGA2
   25    24    52	5 ;      CG321      CG321       HGA2
   23    24    51	5 ;      CG301      CG321       HGA2
   23    24    52	5 ;      CG301      CG321       HGA2
   51    24    52	5 ;       HGA2      CG321       HGA2
   26    25    24	5 ;      CG321      CG321      CG321
   26    25    53	5 ;      CG321      CG321       HGA2
   26    25    54	5 ;      CG321      CG321       HGA2
   24    25    53	5 ;      CG321      CG321       HGA2
   24    25    54	5 ;      CG321      CG321       HGA2
   53    25    54	5 ;       HGA2      CG321       HGA2
   25    26    27	5 ;      CG321      CG321      CG321
   25    26    55	5 ;      CG321      CG321       HGA2
   25    26    56	5 ;      CG321      CG321       HGA2
   27    26    55	5 ;      CG321      CG321       HGA2
   27    26    56	5 ;      CG321      CG321       HGA2
   55    26    56	5 ;       HGA2      CG321       HGA2
   26    27    28	5 ;      CG321      CG321      CG321
   26    27    57	5 ;      CG321      CG321       HGA2
   26    27    58	5 ;      CG321      CG321       HGA2
   28    27    57	5 ;      CG321      CG321       HGA2
   28    27    58	5 ;      CG321      CG321       HGA2
   57    27    58	5 ;       HGA2      CG321       HGA2
   27    28    23	5 ;      CG321      CG321      CG301
   27    28    59	5 ;      CG321      CG321       HGA2
   27    28    60	5 ;      CG321      CG321       HGA2
   23    28    59	5 ;      CG301      CG321       HGA2
   23    28    60	5 ;      CG301      CG321       HGA2
   59    28    60	5 ;       HGA2      CG321       HGA2
   34    29    30	5 ;     CG2R61     CG2R61     CG2R61
   34    29    23	5 ;     CG2R61     CG2R61      CG301
   30    29    23	5 ;     CG2R61     CG2R61      CG301
   31    30    29	5 ;     CG2R61     CG2R61     CG2R61
   31    30    61	5 ;     CG2R61     CG2R61      HGR61
   29    30    61	5 ;     CG2R61     CG2R61      HGR61
   32    31    35	5 ;     CG2R61     CG2R61      CG301
   32    31    30	5 ;     CG2R61     CG2R61     CG2R61
   35    31    30	5 ;      CG301     CG2R61     CG2R61
   33    32    31	5 ;     CG2R61     CG2R61     CG2R61
   33    32    62	5 ;     CG2R61     CG2R61      HGR61
   31    32    62	5 ;     CG2R61     CG2R61      HGR61
   39    33    32	5 ;      CG2O5     CG2R61     CG2R61
   39    33    34	5 ;      CG2O5     CG2R61     CG2R61
   32    33    34	5 ;     CG2R61     CG2R61     CG2R61
   33    34    29	5 ;     CG2R61     CG2R61     CG2R61
   33    34    63	5 ;     CG2R61     CG2R61      HGR61
   29    34    63	5 ;     CG2R61     CG2R61      HGR61
   36    35    37	5 ;      CG331      CG301      CG331
   36    35    31	5 ;      CG331      CG301     CG2R61
   36    35    38	5 ;      CG331      CG301      CG331
   37    35    31	5 ;      CG331      CG301     CG2R61
   37    35    38	5 ;      CG331      CG301      CG331
   31    35    38	5 ;     CG2R61      CG301      CG331
   35    36    73	5 ;      CG301      CG331       HGA3
   35    36    74	5 ;      CG301      CG331       HGA3
   35    36    75	5 ;      CG301      CG331       HGA3
   73    36    74	5 ;       HGA3      CG331       HGA3
   73    36    75	5 ;       HGA3      CG331       HGA3
   74    36    75	5 ;       HGA3      CG331       HGA3
   35    37    64	5 ;      CG301      CG331       HGA3
   35    37    65	5 ;      CG301      CG331       HGA3
   35    37    66	5 ;      CG301      CG331       HGA3
   64    37    65	5 ;       HGA3      CG331       HGA3
   64    37    66	5 ;       HGA3      CG331       HGA3
   65    37    66	5 ;       HGA3      CG331       HGA3
   35    38    76	5 ;      CG301      CG331       HGA3
   35    38    77	5 ;      CG301      CG331       HGA3
   35    38    78	5 ;      CG301      CG331       HGA3
   76    38    77	5 ;       HGA3      CG331       HGA3
   76    38    78	5 ;       HGA3      CG331       HGA3
   77    38    78	5 ;       HGA3      CG331       HGA3
   40    39    41	5 ;      OG2D3      CG2O5      CG331
   40    39    33	5 ;      OG2D3      CG2O5     CG2R61
   41    39    33	5 ;      CG331      CG2O5     CG2R61
   39    41    70	5 ;      CG2O5      CG331       HGA3
   39    41    71	5 ;      CG2O5      CG331       HGA3
   39    41    72	5 ;      CG2O5      CG331       HGA3
   70    41    71	5 ;       HGA3      CG331       HGA3
   70    41    72	5 ;       HGA3      CG331       HGA3
   71    41    72	5 ;       HGA3      CG331       HGA3

[ dihedrals ]
;	ai	  aj	ak	  al funct			  c0			c1			  c2			c3			  c4			c5
    4     1    23    29	 9 ;      CG324      NG3P2      CG301     CG2R61
    4     1    23    24	 9 ;      CG324      NG3P2      CG301      CG321
    4     1    23    28	 9 ;      CG324      NG3P2      CG301      CG321
    2     1    23    29	 9 ;       HGP2      NG3P2      CG301     CG2R61
    2     1    23    24	 9 ;       HGP2      NG3P2      CG301      CG321
    2     1    23    28	 9 ;       HGP2      NG3P2      CG301      CG321
    3     1    23    29	 9 ;       HGP2      NG3P2      CG301     CG2R61
    3     1    23    24	 9 ;       HGP2      NG3P2      CG301      CG321
    3     1    23    28	 9 ;       HGP2      NG3P2      CG301      CG321
   23     1     4     5	 9 ;      CG301      NG3P2      CG324      CG311
   23     1     4    42	 9 ;      CG301      NG3P2      CG324       HGA2
   23     1     4    43	 9 ;      CG301      NG3P2      CG324       HGA2
    2     1     4     5	 9 ;       HGP2      NG3P2      CG324      CG311
    2     1     4    42	 9 ;       HGP2      NG3P2      CG324       HGA2
    2     1     4    43	 9 ;       HGP2      NG3P2      CG324       HGA2
    3     1     4     5	 9 ;       HGP2      NG3P2      CG324      CG311
    3     1     4    42	 9 ;       HGP2      NG3P2      CG324       HGA2
    3     1     4    43	 9 ;       HGP2      NG3P2      CG324       HGA2
    1     4     5    21	 9 ;      NG3P2      CG324      CG311      OG311
    1     4     5     6	 9 ;      NG3P2      CG324      CG311      CG311
    1     4     5    44	 9 ;      NG3P2      CG324      CG311       HGA1
   42     4     5    21	 9 ;       HGA2      CG324      CG311      OG311
   42     4     5     6	 9 ;       HGA2      CG324      CG311      CG311
   42     4     5    44	 9 ;       HGA2      CG324      CG311       HGA1
   43     4     5    21	 9 ;       HGA2      CG324      CG311      OG311
   43     4     5     6	 9 ;       HGA2      CG324      CG311      CG311
   43     4     5    44	 9 ;       HGA2      CG324      CG311       HGA1
    4     5    21    22	 9 ;      CG324      CG311      OG311       HGP1
    6     5    21    22	 9 ;      CG311      CG311      OG311       HGP1
   44     5    21    22	 9 ;       HGA1      CG311      OG311       HGP1
   21     5     6    12	 9 ;      OG311      CG311      CG311      CG321
   21     5     6     7	 9 ;      OG311      CG311      CG311      NG2S1
   21     5     6    45	 9 ;      OG311      CG311      CG311       HGA1
    4     5     6    12	 9 ;      CG324      CG311      CG311      CG321
    4     5     6     7	 9 ;      CG324      CG311      CG311      NG2S1
    4     5     6    45	 9 ;      CG324      CG311      CG311       HGA1
   44     5     6    12	 9 ;       HGA1      CG311      CG311      CG321
   44     5     6     7	 9 ;       HGA1      CG311      CG311      NG2S1
   44     5     6    45	 9 ;       HGA1      CG311      CG311       HGA1
    5     6    12    13	 9 ;      CG311      CG311      CG321     CG2R61
    5     6    12    46	 9 ;      CG311      CG311      CG321       HGA2
    5     6    12    47	 9 ;      CG311      CG311      CG321       HGA2
    7     6    12    13	 9 ;      NG2S1      CG311      CG321     CG2R61
    7     6    12    46	 9 ;      NG2S1      CG311      CG321       HGA2
    7     6    12    47	 9 ;      NG2S1      CG311      CG321       HGA2
   45     6    12    13	 9 ;       HGA1      CG311      CG321     CG2R61
   45     6    12    46	 9 ;       HGA1      CG311      CG321       HGA2
   45     6    12    47	 9 ;       HGA1      CG311      CG321       HGA2
    5     6     7    11	 9 ;      CG311      CG311      NG2S1       HGP1
    5     6     7     8	 9 ;      CG311      CG311      NG2S1      CG2O1
   12     6     7    11	 9 ;      CG321      CG311      NG2S1       HGP1
   12     6     7     8	 9 ;      CG321      CG311      NG2S1      CG2O1
   45     6     7    11	 9 ;       HGA1      CG311      NG2S1       HGP1
   45     6     7     8	 9 ;       HGA1      CG311      NG2S1      CG2O1
    6     7     8     9	 9 ;      CG311      NG2S1      CG2O1      OG2D1
    6     7     8    10	 9 ;      CG311      NG2S1      CG2O1      CG331
   11     7     8     9	 9 ;       HGP1      NG2S1      CG2O1      OG2D1
   11     7     8    10	 9 ;       HGP1      NG2S1      CG2O1      CG331
    7     8    10    67	 9 ;      NG2S1      CG2O1      CG331       HGA3
    7     8    10    68	 9 ;      NG2S1      CG2O1      CG331       HGA3
    7     8    10    69	 9 ;      NG2S1      CG2O1      CG331       HGA3
    9     8    10    67	 9 ;      OG2D1      CG2O1      CG331       HGA3
    9     8    10    68	 9 ;      OG2D1      CG2O1      CG331       HGA3
    9     8    10    69	 9 ;      OG2D1      CG2O1      CG331       HGA3
    6    12    13    14	 9 ;      CG311      CG321     CG2R61     CG2R61
    6    12    13    19	 9 ;      CG311      CG321     CG2R61     CG2R61
   46    12    13    14	 9 ;       HGA2      CG321     CG2R61     CG2R61
   46    12    13    19	 9 ;       HGA2      CG321     CG2R61     CG2R61
   47    12    13    14	 9 ;       HGA2      CG321     CG2R61     CG2R61
   47    12    13    19	 9 ;       HGA2      CG321     CG2R61     CG2R61
   12    13    14    15	 9 ;      CG321     CG2R61     CG2R61     CG2R66
   12    13    14    48	 9 ;      CG321     CG2R61     CG2R61      HGR62
   19    13    14    15	 9 ;     CG2R61     CG2R61     CG2R61     CG2R66
   19    13    14    48	 9 ;     CG2R61     CG2R61     CG2R61      HGR62
   14    13    19    18	 9 ;     CG2R61     CG2R61     CG2R61     CG2R66
   14    13    19    50	 9 ;     CG2R61     CG2R61     CG2R61      HGR62
   12    13    19    18	 9 ;      CG321     CG2R61     CG2R61     CG2R66
   12    13    19    50	 9 ;      CG321     CG2R61     CG2R61      HGR62
   13    14    15    16	 9 ;     CG2R61     CG2R61     CG2R66       FGR1
   13    14    15    17	 9 ;     CG2R61     CG2R61     CG2R66     CG2R61
   48    14    15    16	 9 ;      HGR62     CG2R61     CG2R66       FGR1
   48    14    15    17	 9 ;      HGR62     CG2R61     CG2R66     CG2R61
   16    15    17    18	 9 ;       FGR1     CG2R66     CG2R61     CG2R66
   16    15    17    49	 9 ;       FGR1     CG2R66     CG2R61      HGR62
   14    15    17    18	 9 ;     CG2R61     CG2R66     CG2R61     CG2R66
   14    15    17    49	 9 ;     CG2R61     CG2R66     CG2R61      HGR62
   15    17    18    19	 9 ;     CG2R66     CG2R61     CG2R66     CG2R61
   15    17    18    20	 9 ;     CG2R66     CG2R61     CG2R66       FGR1
   49    17    18    19	 9 ;      HGR62     CG2R61     CG2R66     CG2R61
   49    17    18    20	 9 ;      HGR62     CG2R61     CG2R66       FGR1
   17    18    19    13	 9 ;     CG2R61     CG2R66     CG2R61     CG2R61
   17    18    19    50	 9 ;     CG2R61     CG2R66     CG2R61      HGR62
   20    18    19    13	 9 ;       FGR1     CG2R66     CG2R61     CG2R61
   20    18    19    50	 9 ;       FGR1     CG2R66     CG2R61      HGR62
   24    23    29    34	 9 ;      CG321      CG301     CG2R61     CG2R61
   24    23    29    30	 9 ;      CG321      CG301     CG2R61     CG2R61
   28    23    29    34	 9 ;      CG321      CG301     CG2R61     CG2R61
   28    23    29    30	 9 ;      CG321      CG301     CG2R61     CG2R61
    1    23    29    34	 9 ;      NG3P2      CG301     CG2R61     CG2R61
    1    23    29    30	 9 ;      NG3P2      CG301     CG2R61     CG2R61
   29    23    24    25	 9 ;     CG2R61      CG301      CG321      CG321
   29    23    24    51	 9 ;     CG2R61      CG301      CG321       HGA2
   29    23    24    52	 9 ;     CG2R61      CG301      CG321       HGA2
   28    23    24    25	 9 ;      CG321      CG301      CG321      CG321
   28    23    24    51	 9 ;      CG321      CG301      CG321       HGA2
   28    23    24    52	 9 ;      CG321      CG301      CG321       HGA2
    1    23    24    25	 9 ;      NG3P2      CG301      CG321      CG321
    1    23    24    51	 9 ;      NG3P2      CG301      CG321       HGA2
    1    23    24    52	 9 ;      NG3P2      CG301      CG321       HGA2
   29    23    28    27	 9 ;     CG2R61      CG301      CG321      CG321
   29    23    28    59	 9 ;     CG2R61      CG301      CG321       HGA2
   29    23    28    60	 9 ;     CG2R61      CG301      CG321       HGA2
   24    23    28    27	 9 ;      CG321      CG301      CG321      CG321
   24    23    28    59	 9 ;      CG321      CG301      CG321       HGA2
   24    23    28    60	 9 ;      CG321      CG301      CG321       HGA2
    1    23    28    27	 9 ;      NG3P2      CG301      CG321      CG321
    1    23    28    59	 9 ;      NG3P2      CG301      CG321       HGA2
    1    23    28    60	 9 ;      NG3P2      CG301      CG321       HGA2
   23    24    25    26	 9 ;      CG301      CG321      CG321      CG321
   23    24    25    53	 9 ;      CG301      CG321      CG321       HGA2
   23    24    25    54	 9 ;      CG301      CG321      CG321       HGA2
   51    24    25    26	 9 ;       HGA2      CG321      CG321      CG321
   51    24    25    53	 9 ;       HGA2      CG321      CG321       HGA2
   51    24    25    54	 9 ;       HGA2      CG321      CG321       HGA2
   52    24    25    26	 9 ;       HGA2      CG321      CG321      CG321
   52    24    25    53	 9 ;       HGA2      CG321      CG321       HGA2
   52    24    25    54	 9 ;       HGA2      CG321      CG321       HGA2
   24    25    26    27	 9 ;      CG321      CG321      CG321      CG321
   24    25    26    55	 9 ;      CG321      CG321      CG321       HGA2
   24    25    26    56	 9 ;      CG321      CG321      CG321       HGA2
   53    25    26    27	 9 ;       HGA2      CG321      CG321      CG321
   53    25    26    55	 9 ;       HGA2      CG321      CG321       HGA2
   53    25    26    56	 9 ;       HGA2      CG321      CG321       HGA2
   54    25    26    27	 9 ;       HGA2      CG321      CG321      CG321
   54    25    26    55	 9 ;       HGA2      CG321      CG321       HGA2
   54    25    26    56	 9 ;       HGA2      CG321      CG321       HGA2
   25    26    27    28	 9 ;      CG321      CG321      CG321      CG321
   25    26    27    57	 9 ;      CG321      CG321      CG321       HGA2
   25    26    27    58	 9 ;      CG321      CG321      CG321       HGA2
   55    26    27    28	 9 ;       HGA2      CG321      CG321      CG321
   55    26    27    57	 9 ;       HGA2      CG321      CG321       HGA2
   55    26    27    58	 9 ;       HGA2      CG321      CG321       HGA2
   56    26    27    28	 9 ;       HGA2      CG321      CG321      CG321
   56    26    27    57	 9 ;       HGA2      CG321      CG321       HGA2
   56    26    27    58	 9 ;       HGA2      CG321      CG321       HGA2
   26    27    28    23	 9 ;      CG321      CG321      CG321      CG301
   26    27    28    59	 9 ;      CG321      CG321      CG321       HGA2
   26    27    28    60	 9 ;      CG321      CG321      CG321       HGA2
   57    27    28    23	 9 ;       HGA2      CG321      CG321      CG301
   57    27    28    59	 9 ;       HGA2      CG321      CG321       HGA2
   57    27    28    60	 9 ;       HGA2      CG321      CG321       HGA2
   58    27    28    23	 9 ;       HGA2      CG321      CG321      CG301
   58    27    28    59	 9 ;       HGA2      CG321      CG321       HGA2
   58    27    28    60	 9 ;       HGA2      CG321      CG321       HGA2
   30    29    34    33	 9 ;     CG2R61     CG2R61     CG2R61     CG2R61
   30    29    34    63	 9 ;     CG2R61     CG2R61     CG2R61      HGR61
   23    29    34    33	 9 ;      CG301     CG2R61     CG2R61     CG2R61
   23    29    34    63	 9 ;      CG301     CG2R61     CG2R61      HGR61
   34    29    30    31	 9 ;     CG2R61     CG2R61     CG2R61     CG2R61
   34    29    30    61	 9 ;     CG2R61     CG2R61     CG2R61      HGR61
   23    29    30    31	 9 ;      CG301     CG2R61     CG2R61     CG2R61
   23    29    30    61	 9 ;      CG301     CG2R61     CG2R61      HGR61
   29    30    31    32	 9 ;     CG2R61     CG2R61     CG2R61     CG2R61
   29    30    31    35	 9 ;     CG2R61     CG2R61     CG2R61      CG301
   61    30    31    32	 9 ;      HGR61     CG2R61     CG2R61     CG2R61
   61    30    31    35	 9 ;      HGR61     CG2R61     CG2R61      CG301
   35    31    32    33	 9 ;      CG301     CG2R61     CG2R61     CG2R61
   35    31    32    62	 9 ;      CG301     CG2R61     CG2R61      HGR61
   30    31    32    33	 9 ;     CG2R61     CG2R61     CG2R61     CG2R61
   30    31    32    62	 9 ;     CG2R61     CG2R61     CG2R61      HGR61
   32    31    35    36	 9 ;     CG2R61     CG2R61      CG301      CG331
   32    31    35    37	 9 ;     CG2R61     CG2R61      CG301      CG331
   32    31    35    38	 9 ;     CG2R61     CG2R61      CG301      CG331
   30    31    35    36	 9 ;     CG2R61     CG2R61      CG301      CG331
   30    31    35    37	 9 ;     CG2R61     CG2R61      CG301      CG331
   30    31    35    38	 9 ;     CG2R61     CG2R61      CG301      CG331
   31    32    33    39	 9 ;     CG2R61     CG2R61     CG2R61      CG2O5
   31    32    33    34	 9 ;     CG2R61     CG2R61     CG2R61     CG2R61
   62    32    33    39	 9 ;      HGR61     CG2R61     CG2R61      CG2O5
   62    32    33    34	 9 ;      HGR61     CG2R61     CG2R61     CG2R61
   32    33    39    40	 9 ;     CG2R61     CG2R61      CG2O5      OG2D3
   32    33    39    41	 9 ;     CG2R61     CG2R61      CG2O5      CG331
   34    33    39    40	 9 ;     CG2R61     CG2R61      CG2O5      OG2D3
   34    33    39    41	 9 ;     CG2R61     CG2R61      CG2O5      CG331
   39    33    34    29	 9 ;      CG2O5     CG2R61     CG2R61     CG2R61
   39    33    34    63	 9 ;      CG2O5     CG2R61     CG2R61      HGR61
   32    33    34    29	 9 ;     CG2R61     CG2R61     CG2R61     CG2R61
   32    33    34    63	 9 ;     CG2R61     CG2R61     CG2R61      HGR61
   37    35    36    73	 9 ;      CG331      CG301      CG331       HGA3
   37    35    36    74	 9 ;      CG331      CG301      CG331       HGA3
   37    35    36    75	 9 ;      CG331      CG301      CG331       HGA3
   31    35    36    73	 9 ;     CG2R61      CG301      CG331       HGA3
   31    35    36    74	 9 ;     CG2R61      CG301      CG331       HGA3
   31    35    36    75	 9 ;     CG2R61      CG301      CG331       HGA3
   38    35    36    73	 9 ;      CG331      CG301      CG331       HGA3
   38    35    36    74	 9 ;      CG331      CG301      CG331       HGA3
   38    35    36    75	 9 ;      CG331      CG301      CG331       HGA3
   36    35    37    64	 9 ;      CG331      CG301      CG331       HGA3
   36    35    37    65	 9 ;      CG331      CG301      CG331       HGA3
   36    35    37    66	 9 ;      CG331      CG301      CG331       HGA3
   31    35    37    64	 9 ;     CG2R61      CG301      CG331       HGA3
   31    35    37    65	 9 ;     CG2R61      CG301      CG331       HGA3
   31    35    37    66	 9 ;     CG2R61      CG301      CG331       HGA3
   38    35    37    64	 9 ;      CG331      CG301      CG331       HGA3
   38    35    37    65	 9 ;      CG331      CG301      CG331       HGA3
   38    35    37    66	 9 ;      CG331      CG301      CG331       HGA3
   36    35    38    76	 9 ;      CG331      CG301      CG331       HGA3
   36    35    38    77	 9 ;      CG331      CG301      CG331       HGA3
   36    35    38    78	 9 ;      CG331      CG301      CG331       HGA3
   37    35    38    76	 9 ;      CG331      CG301      CG331       HGA3
   37    35    38    77	 9 ;      CG331      CG301      CG331       HGA3
   37    35    38    78	 9 ;      CG331      CG301      CG331       HGA3
   31    35    38    76	 9 ;     CG2R61      CG301      CG331       HGA3
   31    35    38    77	 9 ;     CG2R61      CG301      CG331       HGA3
   31    35    38    78	 9 ;     CG2R61      CG301      CG331       HGA3
   40    39    41    70	 9 ;      OG2D3      CG2O5      CG331       HGA3
   40    39    41    71	 9 ;      OG2D3      CG2O5      CG331       HGA3
   40    39    41    72	 9 ;      OG2D3      CG2O5      CG331       HGA3
   33    39    41    70	 9 ;     CG2R61      CG2O5      CG331       HGA3
   33    39    41    71	 9 ;     CG2R61      CG2O5      CG331       HGA3
   33    39    41    72	 9 ;     CG2R61      CG2O5      CG331       HGA3

[ dihedrals ]
;	ai	  aj	ak	  al funct			  c0			c1			  c2			c3
    8    10     7     9	 2
   39    33    41    40	 2

