Good gRace! Old Maple Actually Chews Slate
   77
    1LIG     C1    1  -1.269   0.728  -1.672
    1LIG     C2    2  -1.146   0.704  -1.581
    1LIG     O1    3  -1.155   0.771  -1.455
    1LIG     H1    4  -1.156   0.868  -1.471
    1LIG     C3    5  -1.129   0.554  -1.549
    1LIG     N1    6  -1.243   0.513  -1.460
    1LIG     H2    7  -1.288   0.596  -1.420
    1LIG     H3    8  -1.315   0.473  -1.522
    1LIG     C4    9  -1.209   0.418  -1.351
    1LIG     C5   10  -1.218   0.277  -1.402
    1LIG     C6   11  -1.131   0.178  -1.352
    1LIG     C7   12  -1.129   0.049  -1.407
    1LIG     C8   13  -1.215   0.020  -1.514
    1LIG     C9   14  -1.303   0.116  -1.563
    1LIG    C10   15  -1.305   0.244  -1.507
    1LIG    C11   16  -1.036  -0.057  -1.354
    1LIG     F1   17  -0.929  -0.004  -1.286
    1LIG     F2   18  -1.097  -0.142  -1.267
    1LIG     F3   19  -0.983  -0.134  -1.453
    1LIG    C12   20  -1.373   0.825  -1.612
    1LIG    C13   21  -1.514   0.775  -1.584
    1LIG    C14   22  -1.621   0.864  -1.566
    1LIG    C15   23  -1.753   0.817  -1.561
    1LIG    C16   24  -1.779   0.681  -1.573
    1LIG    C17   25  -1.674   0.591  -1.588
    1LIG    C18   26  -1.542   0.637  -1.593
    1LIG     N2   27  -1.225   0.767  -1.806
    1LIG    C19   28  -1.291   0.773  -1.927
    1LIG     O2   29  -1.222   0.803  -2.024
    1LIG     H4   30  -1.135   0.811  -1.816
    1LIG    C20   31  -1.438   0.749  -1.945
    1LIG     N3   32  -1.483   0.623  -1.964
    1LIG    C21   33  -1.617   0.605  -1.963
    1LIG     HN   34  -1.419   0.545  -1.979
    1LIG    C22   35  -1.709   0.708  -1.943
    1LIG    C23   36  -1.661   0.837  -1.931
    1LIG    C24   37  -1.524   0.859  -1.933
    1LIG     N4   38  -1.661   0.473  -1.988
    1LIG      S   39  -1.640   0.408  -2.142
    1LIG     O3   40  -1.709   0.281  -2.151
    1LIG     O4   41  -1.501   0.417  -2.179
    1LIG    C25   42  -1.730   0.524  -2.244
    1LIG    C26   43  -1.700   0.389  -1.879
    1LIG    C27   44  -1.605   0.314  -1.808
    1LIG    C28   45  -1.645   0.234  -1.701
    1LIG    C29   46  -1.780   0.227  -1.666
    1LIG    C30   47  -1.875   0.300  -1.737
    1LIG    C31   48  -1.835   0.381  -1.844
    1LIG     HC   49  -1.319   0.631  -1.683
    1LIG    HC1   50  -1.057   0.739  -1.633
    1LIG    HC2   51  -1.131   0.496  -1.641
    1LIG    HC3   52  -1.035   0.538  -1.497
    1LIG    HC4   53  -1.279   0.431  -1.269
    1LIG    HC5   54  -1.108   0.438  -1.316
    1LIG    HC6   55  -1.064   0.203  -1.271
    1LIG    HC7   56  -1.214  -0.079  -1.558
    1LIG    HC8   57  -1.370   0.092  -1.644
    1LIG    HC9   58  -1.374   0.318  -1.545
    1LIG   HC10   59  -1.383   0.909  -1.681
    1LIG   HC11   60  -1.333   0.863  -1.518
    1LIG   HC12   61  -1.601   0.970  -1.557
    1LIG   HC13   62  -1.834   0.887  -1.547
    1LIG   HC14   63  -1.881   0.645  -1.571
    1LIG   HC15   64  -1.694   0.485  -1.596
    1LIG   HC16   65  -1.461   0.567  -1.604
    1LIG   HC17   66  -1.814   0.687  -1.936
    1LIG   HC18   67  -1.729   0.920  -1.921
    1LIG   HC19   68  -1.484   0.959  -1.926
    1LIG   HC20   69  -1.746   0.481  -2.343
    1LIG   HC21   70  -1.674   0.616  -2.253
    1LIG   HC22   71  -1.827   0.545  -2.198
    1LIG   HC23   72  -1.501   0.319  -1.835
    1LIG   HC24   73  -1.572   0.177  -1.645
    1LIG   HC25   74  -1.811   0.164  -1.583
    1LIG   HC26   75  -1.979   0.294  -1.710
    1LIG   HC27   76  -1.908   0.438  -1.899
    1LIG    H34   77  -1.430   0.765  -2.052
   0.00000   0.00000   0.00000
