; Created by cgenff_charmm2gmx.py

[ moleculetype ]
; Name			   nrexcl
LIG				 3

[ atoms ]
;	 nr		  type	resnr residue  atom   cgnr	   charge		mass  typeB    chargeB		massB
; residue	 1 LIG rtp LIG q	qsum
     1      CG311      1    LIG     C1      1     -0.003     12.011   ;
     2      CG311      1    LIG     C2      2      0.094     12.011   ;
     3      OG311      1    LIG     O1      3     -0.625     15.999   ;
     4       HGP1      1    LIG     H1      4      0.415      1.008   ;
     5      CG324      1    LIG     C3      5      0.178     12.011   ;
     6      NG3P2      1    LIG     N1      6     -0.444     14.007   ;
     7       HGP2      1    LIG     H2      7      0.348      1.008   ;
     8       HGP2      1    LIG     H3      8      0.348      1.008   ;
     9      CG324      1    LIG     C4      9      0.171     12.011   ;
    10     CG2R61      1    LIG     C5     10      0.055     12.011   ;
    11     CG2R61      1    LIG     C6     11     -0.038     12.011   ;
    12     CG2R61      1    LIG     C7     12     -0.278     12.011   ;
    13     CG2R61      1    LIG     C8     13     -0.035     12.011   ;
    14     CG2R61      1    LIG     C9     14     -0.089     12.011   ;
    15     CG2R61      1    LIG    C10     15     -0.119     12.011   ;
    16      CG302      1    LIG    C11     16      0.605     12.011   ;
    17       FGA3      1    LIG     F1     17     -0.176     18.998   ;
    18       FGA3      1    LIG     F2     18     -0.176     18.998   ;
    19       FGA3      1    LIG     F3     19     -0.176     18.998   ;
    20      CG321      1    LIG    C12     20     -0.111     12.011   ;
    21     CG2R61      1    LIG    C13     21     -0.019     12.011   ;
    22     CG2R61      1    LIG    C14     22     -0.123     12.011   ;
    23     CG2R61      1    LIG    C15     23     -0.112     12.011   ;
    24     CG2R61      1    LIG    C16     24     -0.116     12.011   ;
    25     CG2R61      1    LIG    C17     25     -0.112     12.011   ;
    26     CG2R61      1    LIG    C18     26     -0.123     12.011   ;
    27      NG2S1      1    LIG     N2     27     -0.382     14.007   ;
    28      CG2O1      1    LIG    C19     28      0.314     12.011   ;
    29      OG2D1      1    LIG     O2     29     -0.473     15.999   ;
    30       HGP1      1    LIG     H4     30      0.269      1.008   ;
    31      CG311      1    LIG    C20     31      0.452     12.011   ;
    32      NG311      1    LIG     N3     32     -0.546     14.007   ;
    33     CG2D1O      1    LIG    C21     33      0.518     12.011   ;
    34     HGPAM1      1    LIG     HN     34      0.373      1.008   ;
    35     CG2DC1      1    LIG    C22     35     -0.361     12.011   ;
    36     CG2DC2      1    LIG    C23     36     -0.177     12.011   ;
    37     CG2DC2      1    LIG    C24     37     -0.316     12.011   ;
    38      NG301      1    LIG     N4     38     -0.163     14.007   ;
    39      SG3O2      1    LIG      S     39      0.476     32.060   ;
    40      OG2P1      1    LIG     O3     40     -0.411     15.999   ;
    41      OG2P1      1    LIG     O4     41     -0.411     15.999   ;
    42      CG331      1    LIG    C25     42      0.033     12.011   ;
    43     CG2R61      1    LIG    C26     43     -0.153     12.011   ;
    44     CG2R61      1    LIG    C27     44     -0.090     12.011   ;
    45     CG2R61      1    LIG    C28     45     -0.112     12.011   ;
    46     CG2R61      1    LIG    C29     46     -0.116     12.011   ;
    47     CG2R61      1    LIG    C30     47     -0.112     12.011   ;
    48     CG2R61      1    LIG    C31     48     -0.090     12.011   ;
    49       HGA1      1    LIG     HC     49      0.090      1.008   ;
    50       HGA1      1    LIG    HC1     50      0.090      1.008   ;
    51       HGA2      1    LIG    HC2     51      0.090      1.008   ;
    52       HGA2      1    LIG    HC3     52      0.090      1.008   ;
    53       HGA2      1    LIG    HC4     53      0.090      1.008   ;
    54       HGA2      1    LIG    HC5     54      0.090      1.008   ;
    55      HGR61      1    LIG    HC6     55      0.116      1.008   ;
    56      HGR61      1    LIG    HC7     56      0.116      1.008   ;
    57      HGR61      1    LIG    HC8     57      0.116      1.008   ;
    58      HGR61      1    LIG    HC9     58      0.116      1.008   ;
    59       HGA2      1    LIG   HC10     59      0.090      1.008   ;
    60       HGA2      1    LIG   HC11     60      0.090      1.008   ;
    61      HGR61      1    LIG   HC12     61      0.116      1.008   ;
    62      HGR61      1    LIG   HC13     62      0.116      1.008   ;
    63      HGR61      1    LIG   HC14     63      0.116      1.008   ;
    64      HGR61      1    LIG   HC15     64      0.116      1.008   ;
    65      HGR61      1    LIG   HC16     65      0.116      1.008   ;
    66       HGA4      1    LIG   HC17     66      0.131      1.008   ;
    67       HGA4      1    LIG   HC18     67      0.150      1.008   ;
    68       HGA4      1    LIG   HC19     68      0.154      1.008   ;
    69       HGA3      1    LIG   HC20     69      0.090      1.008   ;
    70       HGA3      1    LIG   HC21     70      0.090      1.008   ;
    71       HGA3      1    LIG   HC22     71      0.090      1.008   ;
    72      HGR61      1    LIG   HC23     72      0.116      1.008   ;
    73      HGR61      1    LIG   HC24     73      0.116      1.008   ;
    74      HGR61      1    LIG   HC25     74      0.116      1.008   ;
    75      HGR61      1    LIG   HC26     75      0.116      1.008   ;
    76      HGR61      1    LIG   HC27     76      0.116      1.008   ;
    77       HGA1      1    LIG    H34     77      0.090      1.008   ;

[ bonds ]
;	ai	  aj funct			  c0			c1			  c2			c3
    1    27	 1 ;       CG311      NG2S1
    1     2	 1 ;       CG311      CG311
    1    20	 1 ;       CG311      CG321
    1    49	 1 ;       CG311       HGA1
    2     5	 1 ;       CG311      CG324
    2     3	 1 ;       CG311      OG311
    2    50	 1 ;       CG311       HGA1
    3     4	 1 ;       OG311       HGP1
    5     6	 1 ;       CG324      NG3P2
    5    51	 1 ;       CG324       HGA2
    5    52	 1 ;       CG324       HGA2
    6     8	 1 ;       NG3P2       HGP2
    6     7	 1 ;       NG3P2       HGP2
    6     9	 1 ;       NG3P2      CG324
    9    10	 1 ;       CG324     CG2R61
    9    53	 1 ;       CG324       HGA2
    9    54	 1 ;       CG324       HGA2
   10    11	 1 ;      CG2R61     CG2R61
   10    15	 1 ;      CG2R61     CG2R61
   11    12	 1 ;      CG2R61     CG2R61
   11    55	 1 ;      CG2R61      HGR61
   12    16	 1 ;      CG2R61      CG302
   12    13	 1 ;      CG2R61     CG2R61
   13    14	 1 ;      CG2R61     CG2R61
   13    56	 1 ;      CG2R61      HGR61
   14    15	 1 ;      CG2R61     CG2R61
   14    57	 1 ;      CG2R61      HGR61
   15    58	 1 ;      CG2R61      HGR61
   16    19	 1 ;       CG302       FGA3
   16    17	 1 ;       CG302       FGA3
   16    18	 1 ;       CG302       FGA3
   20    21	 1 ;       CG321     CG2R61
   20    59	 1 ;       CG321       HGA2
   20    60	 1 ;       CG321       HGA2
   21    26	 1 ;      CG2R61     CG2R61
   21    22	 1 ;      CG2R61     CG2R61
   22    23	 1 ;      CG2R61     CG2R61
   22    61	 1 ;      CG2R61      HGR61
   23    24	 1 ;      CG2R61     CG2R61
   23    62	 1 ;      CG2R61      HGR61
   24    25	 1 ;      CG2R61     CG2R61
   24    63	 1 ;      CG2R61      HGR61
   25    26	 1 ;      CG2R61     CG2R61
   25    64	 1 ;      CG2R61      HGR61
   26    65	 1 ;      CG2R61      HGR61
   27    30	 1 ;       NG2S1       HGP1
   27    28	 1 ;       NG2S1      CG2O1
   28    29	 1 ;       CG2O1      OG2D1
   28    31	 1 ;       CG2O1      CG311
   31    32	 1 ;       CG311      NG311
   31    37	 1 ;       CG311     CG2DC2
   31    77	 1 ;       CG311       HGA1
   32    34	 1 ;       NG311     HGPAM1
   32    33	 1 ;       NG311     CG2D1O
   33    38	 1 ;      CG2D1O      NG301
   33    35	 1 ;      CG2D1O     CG2DC1
   35    36	 1 ;      CG2DC1     CG2DC2
   35    66	 1 ;      CG2DC1       HGA4
   36    37	 1 ;      CG2DC2     CG2DC2
   36    67	 1 ;      CG2DC2       HGA4
   37    68	 1 ;      CG2DC2       HGA4
   38    39	 1 ;       NG301      SG3O2
   38    43	 1 ;       NG301     CG2R61
   39    41	 1 ;       SG3O2      OG2P1
   39    42	 1 ;       SG3O2      CG331
   39    40	 1 ;       SG3O2      OG2P1
   42    69	 1 ;       CG331       HGA3
   42    70	 1 ;       CG331       HGA3
   42    71	 1 ;       CG331       HGA3
   43    44	 1 ;      CG2R61     CG2R61
   43    48	 1 ;      CG2R61     CG2R61
   44    45	 1 ;      CG2R61     CG2R61
   44    72	 1 ;      CG2R61      HGR61
   45    46	 1 ;      CG2R61     CG2R61
   45    73	 1 ;      CG2R61      HGR61
   46    47	 1 ;      CG2R61     CG2R61
   46    74	 1 ;      CG2R61      HGR61
   47    48	 1 ;      CG2R61     CG2R61
   47    75	 1 ;      CG2R61      HGR61
   48    76	 1 ;      CG2R61      HGR61

[ pairs ]
;	ai	  aj funct			  c0			c1			  c2			c3
    1     6	 1
    1    51	 1
    1    52	 1
    1     4	 1
    1    26	 1
    1    22	 1
    1    29	 1
    1    31	 1
    2    30	 1
    2    28	 1
    2    21	 1
    2    59	 1
    2    60	 1
    2     8	 1
    2     7	 1
    2     9	 1
    3    27	 1
    3    20	 1
    3    49	 1
    3     6	 1
    3    51	 1
    3    52	 1
    4     5	 1
    4    50	 1
    5    27	 1
    5    20	 1
    5    49	 1
    5    10	 1
    5    53	 1
    5    54	 1
    6    50	 1
    6    11	 1
    6    15	 1
    7    51	 1
    7    52	 1
    7    10	 1
    7    53	 1
    7    54	 1
    8    51	 1
    8    52	 1
    8    10	 1
    8    53	 1
    8    54	 1
    9    51	 1
    9    52	 1
    9    12	 1
    9    55	 1
    9    14	 1
    9    58	 1
   10    16	 1
   10    13	 1
   10    57	 1
   11    53	 1
   11    54	 1
   11    14	 1
   11    58	 1
   11    19	 1
   11    17	 1
   11    18	 1
   11    56	 1
   12    15	 1
   12    57	 1
   13    55	 1
   13    19	 1
   13    17	 1
   13    18	 1
   13    58	 1
   14    16	 1
   15    53	 1
   15    54	 1
   15    55	 1
   15    56	 1
   16    55	 1
   16    56	 1
   20    30	 1
   20    28	 1
   20    50	 1
   20    25	 1
   20    65	 1
   20    23	 1
   20    61	 1
   21    27	 1
   21    49	 1
   21    24	 1
   21    62	 1
   21    64	 1
   22    59	 1
   22    60	 1
   22    25	 1
   22    65	 1
   22    63	 1
   23    26	 1
   23    64	 1
   24    61	 1
   24    65	 1
   25    62	 1
   26    59	 1
   26    60	 1
   26    61	 1
   26    63	 1
   27    50	 1
   27    59	 1
   27    60	 1
   27    32	 1
   27    37	 1
   27    77	 1
   28    49	 1
   28    34	 1
   28    33	 1
   28    36	 1
   28    68	 1
   29    30	 1
   29    32	 1
   29    37	 1
   29    77	 1
   30    49	 1
   30    31	 1
   31    38	 1
   31    35	 1
   31    67	 1
   32    36	 1
   32    68	 1
   32    39	 1
   32    43	 1
   32    66	 1
   33    37	 1
   33    77	 1
   33    67	 1
   33    41	 1
   33    42	 1
   33    40	 1
   33    44	 1
   33    48	 1
   34    37	 1
   34    77	 1
   34    38	 1
   34    35	 1
   35    39	 1
   35    43	 1
   35    68	 1
   36    77	 1
   36    38	 1
   37    66	 1
   38    66	 1
   38    69	 1
   38    70	 1
   38    71	 1
   38    45	 1
   38    72	 1
   38    47	 1
   38    76	 1
   39    44	 1
   39    48	 1
   40    43	 1
   40    69	 1
   40    70	 1
   40    71	 1
   41    43	 1
   41    69	 1
   41    70	 1
   41    71	 1
   42    43	 1
   43    46	 1
   43    73	 1
   43    75	 1
   44    47	 1
   44    76	 1
   44    74	 1
   45    48	 1
   45    75	 1
   46    72	 1
   46    76	 1
   47    73	 1
   48    72	 1
   48    74	 1
   49    50	 1
   49    59	 1
   49    60	 1
   50    51	 1
   50    52	 1
   56    57	 1
   57    58	 1
   61    62	 1
   62    63	 1
   63    64	 1
   64    65	 1
   66    67	 1
   67    68	 1
   68    77	 1
   72    73	 1
   73    74	 1
   74    75	 1
   75    76	 1

[ angles ]
;	ai	  aj	ak funct			c0			  c1			c2			  c3
   27     1     2	5 ;      NG2S1      CG311      CG311
   27     1    20	5 ;      NG2S1      CG311      CG321
   27     1    49	5 ;      NG2S1      CG311       HGA1
    2     1    20	5 ;      CG311      CG311      CG321
    2     1    49	5 ;      CG311      CG311       HGA1
   20     1    49	5 ;      CG321      CG311       HGA1
    5     2     1	5 ;      CG324      CG311      CG311
    5     2     3	5 ;      CG324      CG311      OG311
    5     2    50	5 ;      CG324      CG311       HGA1
    1     2     3	5 ;      CG311      CG311      OG311
    1     2    50	5 ;      CG311      CG311       HGA1
    3     2    50	5 ;      OG311      CG311       HGA1
    2     3     4	5 ;      CG311      OG311       HGP1
    2     5     6	5 ;      CG311      CG324      NG3P2
    2     5    51	5 ;      CG311      CG324       HGA2
    2     5    52	5 ;      CG311      CG324       HGA2
    6     5    51	5 ;      NG3P2      CG324       HGA2
    6     5    52	5 ;      NG3P2      CG324       HGA2
   51     5    52	5 ;       HGA2      CG324       HGA2
    5     6     8	5 ;      CG324      NG3P2       HGP2
    5     6     7	5 ;      CG324      NG3P2       HGP2
    5     6     9	5 ;      CG324      NG3P2      CG324
    8     6     7	5 ;       HGP2      NG3P2       HGP2
    8     6     9	5 ;       HGP2      NG3P2      CG324
    7     6     9	5 ;       HGP2      NG3P2      CG324
    6     9    10	5 ;      NG3P2      CG324     CG2R61
    6     9    53	5 ;      NG3P2      CG324       HGA2
    6     9    54	5 ;      NG3P2      CG324       HGA2
   10     9    53	5 ;     CG2R61      CG324       HGA2
   10     9    54	5 ;     CG2R61      CG324       HGA2
   53     9    54	5 ;       HGA2      CG324       HGA2
   11    10     9	5 ;     CG2R61     CG2R61      CG324
   11    10    15	5 ;     CG2R61     CG2R61     CG2R61
    9    10    15	5 ;      CG324     CG2R61     CG2R61
   12    11    10	5 ;     CG2R61     CG2R61     CG2R61
   12    11    55	5 ;     CG2R61     CG2R61      HGR61
   10    11    55	5 ;     CG2R61     CG2R61      HGR61
   16    12    11	5 ;      CG302     CG2R61     CG2R61
   16    12    13	5 ;      CG302     CG2R61     CG2R61
   11    12    13	5 ;     CG2R61     CG2R61     CG2R61
   12    13    14	5 ;     CG2R61     CG2R61     CG2R61
   12    13    56	5 ;     CG2R61     CG2R61      HGR61
   14    13    56	5 ;     CG2R61     CG2R61      HGR61
   13    14    15	5 ;     CG2R61     CG2R61     CG2R61
   13    14    57	5 ;     CG2R61     CG2R61      HGR61
   15    14    57	5 ;     CG2R61     CG2R61      HGR61
   10    15    14	5 ;     CG2R61     CG2R61     CG2R61
   10    15    58	5 ;     CG2R61     CG2R61      HGR61
   14    15    58	5 ;     CG2R61     CG2R61      HGR61
   19    16    17	5 ;       FGA3      CG302       FGA3
   19    16    12	5 ;       FGA3      CG302     CG2R61
   19    16    18	5 ;       FGA3      CG302       FGA3
   17    16    12	5 ;       FGA3      CG302     CG2R61
   17    16    18	5 ;       FGA3      CG302       FGA3
   12    16    18	5 ;     CG2R61      CG302       FGA3
    1    20    21	5 ;      CG311      CG321     CG2R61
    1    20    59	5 ;      CG311      CG321       HGA2
    1    20    60	5 ;      CG311      CG321       HGA2
   21    20    59	5 ;     CG2R61      CG321       HGA2
   21    20    60	5 ;     CG2R61      CG321       HGA2
   59    20    60	5 ;       HGA2      CG321       HGA2
   20    21    26	5 ;      CG321     CG2R61     CG2R61
   20    21    22	5 ;      CG321     CG2R61     CG2R61
   26    21    22	5 ;     CG2R61     CG2R61     CG2R61
   21    22    23	5 ;     CG2R61     CG2R61     CG2R61
   21    22    61	5 ;     CG2R61     CG2R61      HGR61
   23    22    61	5 ;     CG2R61     CG2R61      HGR61
   22    23    24	5 ;     CG2R61     CG2R61     CG2R61
   22    23    62	5 ;     CG2R61     CG2R61      HGR61
   24    23    62	5 ;     CG2R61     CG2R61      HGR61
   25    24    23	5 ;     CG2R61     CG2R61     CG2R61
   25    24    63	5 ;     CG2R61     CG2R61      HGR61
   23    24    63	5 ;     CG2R61     CG2R61      HGR61
   26    25    24	5 ;     CG2R61     CG2R61     CG2R61
   26    25    64	5 ;     CG2R61     CG2R61      HGR61
   24    25    64	5 ;     CG2R61     CG2R61      HGR61
   21    26    25	5 ;     CG2R61     CG2R61     CG2R61
   21    26    65	5 ;     CG2R61     CG2R61      HGR61
   25    26    65	5 ;     CG2R61     CG2R61      HGR61
   30    27    28	5 ;       HGP1      NG2S1      CG2O1
   30    27     1	5 ;       HGP1      NG2S1      CG311
   28    27     1	5 ;      CG2O1      NG2S1      CG311
   29    28    27	5 ;      OG2D1      CG2O1      NG2S1
   29    28    31	5 ;      OG2D1      CG2O1      CG311
   27    28    31	5 ;      NG2S1      CG2O1      CG311
   28    31    32	5 ;      CG2O1      CG311      NG311
   28    31    37	5 ;      CG2O1      CG311     CG2DC2
   28    31    77	5 ;      CG2O1      CG311       HGA1
   32    31    37	5 ;      NG311      CG311     CG2DC2
   32    31    77	5 ;      NG311      CG311       HGA1
   37    31    77	5 ;     CG2DC2      CG311       HGA1
   31    32    34	5 ;      CG311      NG311     HGPAM1
   31    32    33	5 ;      CG311      NG311     CG2D1O
   34    32    33	5 ;     HGPAM1      NG311     CG2D1O
   32    33    38	5 ;      NG311     CG2D1O      NG301
   32    33    35	5 ;      NG311     CG2D1O     CG2DC1
   38    33    35	5 ;      NG301     CG2D1O     CG2DC1
   33    35    36	5 ;     CG2D1O     CG2DC1     CG2DC2
   33    35    66	5 ;     CG2D1O     CG2DC1       HGA4
   36    35    66	5 ;     CG2DC2     CG2DC1       HGA4
   37    36    35	5 ;     CG2DC2     CG2DC2     CG2DC1
   37    36    67	5 ;     CG2DC2     CG2DC2       HGA4
   35    36    67	5 ;     CG2DC1     CG2DC2       HGA4
   31    37    36	5 ;      CG311     CG2DC2     CG2DC2
   31    37    68	5 ;      CG311     CG2DC2       HGA4
   36    37    68	5 ;     CG2DC2     CG2DC2       HGA4
   39    38    33	5 ;      SG3O2      NG301     CG2D1O
   39    38    43	5 ;      SG3O2      NG301     CG2R61
   33    38    43	5 ;     CG2D1O      NG301     CG2R61
   41    39    42	5 ;      OG2P1      SG3O2      CG331
   41    39    40	5 ;      OG2P1      SG3O2      OG2P1
   41    39    38	5 ;      OG2P1      SG3O2      NG301
   42    39    40	5 ;      CG331      SG3O2      OG2P1
   42    39    38	5 ;      CG331      SG3O2      NG301
   40    39    38	5 ;      OG2P1      SG3O2      NG301
   39    42    69	5 ;      SG3O2      CG331       HGA3
   39    42    70	5 ;      SG3O2      CG331       HGA3
   39    42    71	5 ;      SG3O2      CG331       HGA3
   69    42    70	5 ;       HGA3      CG331       HGA3
   69    42    71	5 ;       HGA3      CG331       HGA3
   70    42    71	5 ;       HGA3      CG331       HGA3
   38    43    44	5 ;      NG301     CG2R61     CG2R61
   38    43    48	5 ;      NG301     CG2R61     CG2R61
   44    43    48	5 ;     CG2R61     CG2R61     CG2R61
   43    44    45	5 ;     CG2R61     CG2R61     CG2R61
   43    44    72	5 ;     CG2R61     CG2R61      HGR61
   45    44    72	5 ;     CG2R61     CG2R61      HGR61
   44    45    46	5 ;     CG2R61     CG2R61     CG2R61
   44    45    73	5 ;     CG2R61     CG2R61      HGR61
   46    45    73	5 ;     CG2R61     CG2R61      HGR61
   45    46    47	5 ;     CG2R61     CG2R61     CG2R61
   45    46    74	5 ;     CG2R61     CG2R61      HGR61
   47    46    74	5 ;     CG2R61     CG2R61      HGR61
   48    47    46	5 ;     CG2R61     CG2R61     CG2R61
   48    47    75	5 ;     CG2R61     CG2R61      HGR61
   46    47    75	5 ;     CG2R61     CG2R61      HGR61
   43    48    47	5 ;     CG2R61     CG2R61     CG2R61
   43    48    76	5 ;     CG2R61     CG2R61      HGR61
   47    48    76	5 ;     CG2R61     CG2R61      HGR61

[ dihedrals ]
;	ai	  aj	ak	  al funct			  c0			c1			  c2			c3			  c4			c5
    2     1    27    30	 9 ;      CG311      CG311      NG2S1       HGP1
    2     1    27    28	 9 ;      CG311      CG311      NG2S1      CG2O1
   20     1    27    30	 9 ;      CG321      CG311      NG2S1       HGP1
   20     1    27    28	 9 ;      CG321      CG311      NG2S1      CG2O1
   49     1    27    30	 9 ;       HGA1      CG311      NG2S1       HGP1
   49     1    27    28	 9 ;       HGA1      CG311      NG2S1      CG2O1
   27     1     2     5	 9 ;      NG2S1      CG311      CG311      CG324
   27     1     2     3	 9 ;      NG2S1      CG311      CG311      OG311
   27     1     2    50	 9 ;      NG2S1      CG311      CG311       HGA1
   20     1     2     5	 9 ;      CG321      CG311      CG311      CG324
   20     1     2     3	 9 ;      CG321      CG311      CG311      OG311
   20     1     2    50	 9 ;      CG321      CG311      CG311       HGA1
   49     1     2     5	 9 ;       HGA1      CG311      CG311      CG324
   49     1     2     3	 9 ;       HGA1      CG311      CG311      OG311
   49     1     2    50	 9 ;       HGA1      CG311      CG311       HGA1
   27     1    20    21	 9 ;      NG2S1      CG311      CG321     CG2R61
   27     1    20    59	 9 ;      NG2S1      CG311      CG321       HGA2
   27     1    20    60	 9 ;      NG2S1      CG311      CG321       HGA2
    2     1    20    21	 9 ;      CG311      CG311      CG321     CG2R61
    2     1    20    59	 9 ;      CG311      CG311      CG321       HGA2
    2     1    20    60	 9 ;      CG311      CG311      CG321       HGA2
   49     1    20    21	 9 ;       HGA1      CG311      CG321     CG2R61
   49     1    20    59	 9 ;       HGA1      CG311      CG321       HGA2
   49     1    20    60	 9 ;       HGA1      CG311      CG321       HGA2
    1     2     5     6	 9 ;      CG311      CG311      CG324      NG3P2
    1     2     5    51	 9 ;      CG311      CG311      CG324       HGA2
    1     2     5    52	 9 ;      CG311      CG311      CG324       HGA2
    3     2     5     6	 9 ;      OG311      CG311      CG324      NG3P2
    3     2     5    51	 9 ;      OG311      CG311      CG324       HGA2
    3     2     5    52	 9 ;      OG311      CG311      CG324       HGA2
   50     2     5     6	 9 ;       HGA1      CG311      CG324      NG3P2
   50     2     5    51	 9 ;       HGA1      CG311      CG324       HGA2
   50     2     5    52	 9 ;       HGA1      CG311      CG324       HGA2
    5     2     3     4	 9 ;      CG324      CG311      OG311       HGP1
    1     2     3     4	 9 ;      CG311      CG311      OG311       HGP1
   50     2     3     4	 9 ;       HGA1      CG311      OG311       HGP1
    2     5     6     8	 9 ;      CG311      CG324      NG3P2       HGP2
    2     5     6     7	 9 ;      CG311      CG324      NG3P2       HGP2
    2     5     6     9	 9 ;      CG311      CG324      NG3P2      CG324
   51     5     6     8	 9 ;       HGA2      CG324      NG3P2       HGP2
   51     5     6     7	 9 ;       HGA2      CG324      NG3P2       HGP2
   51     5     6     9	 9 ;       HGA2      CG324      NG3P2      CG324
   52     5     6     8	 9 ;       HGA2      CG324      NG3P2       HGP2
   52     5     6     7	 9 ;       HGA2      CG324      NG3P2       HGP2
   52     5     6     9	 9 ;       HGA2      CG324      NG3P2      CG324
    5     6     9    10	 9 ;      CG324      NG3P2      CG324     CG2R61
    5     6     9    53	 9 ;      CG324      NG3P2      CG324       HGA2
    5     6     9    54	 9 ;      CG324      NG3P2      CG324       HGA2
    8     6     9    10	 9 ;       HGP2      NG3P2      CG324     CG2R61
    8     6     9    53	 9 ;       HGP2      NG3P2      CG324       HGA2
    8     6     9    54	 9 ;       HGP2      NG3P2      CG324       HGA2
    7     6     9    10	 9 ;       HGP2      NG3P2      CG324     CG2R61
    7     6     9    53	 9 ;       HGP2      NG3P2      CG324       HGA2
    7     6     9    54	 9 ;       HGP2      NG3P2      CG324       HGA2
    6     9    10    11	 9 ;      NG3P2      CG324     CG2R61     CG2R61
    6     9    10    15	 9 ;      NG3P2      CG324     CG2R61     CG2R61
   53     9    10    11	 9 ;       HGA2      CG324     CG2R61     CG2R61
   53     9    10    15	 9 ;       HGA2      CG324     CG2R61     CG2R61
   54     9    10    11	 9 ;       HGA2      CG324     CG2R61     CG2R61
   54     9    10    15	 9 ;       HGA2      CG324     CG2R61     CG2R61
    9    10    11    12	 9 ;      CG324     CG2R61     CG2R61     CG2R61
    9    10    11    55	 9 ;      CG324     CG2R61     CG2R61      HGR61
   15    10    11    12	 9 ;     CG2R61     CG2R61     CG2R61     CG2R61
   15    10    11    55	 9 ;     CG2R61     CG2R61     CG2R61      HGR61
   11    10    15    14	 9 ;     CG2R61     CG2R61     CG2R61     CG2R61
   11    10    15    58	 9 ;     CG2R61     CG2R61     CG2R61      HGR61
    9    10    15    14	 9 ;      CG324     CG2R61     CG2R61     CG2R61
    9    10    15    58	 9 ;      CG324     CG2R61     CG2R61      HGR61
   10    11    12    16	 9 ;     CG2R61     CG2R61     CG2R61      CG302
   10    11    12    13	 9 ;     CG2R61     CG2R61     CG2R61     CG2R61
   55    11    12    16	 9 ;      HGR61     CG2R61     CG2R61      CG302
   55    11    12    13	 9 ;      HGR61     CG2R61     CG2R61     CG2R61
   11    12    16    19	 9 ;     CG2R61     CG2R61      CG302       FGA3
   11    12    16    17	 9 ;     CG2R61     CG2R61      CG302       FGA3
   11    12    16    18	 9 ;     CG2R61     CG2R61      CG302       FGA3
   13    12    16    19	 9 ;     CG2R61     CG2R61      CG302       FGA3
   13    12    16    17	 9 ;     CG2R61     CG2R61      CG302       FGA3
   13    12    16    18	 9 ;     CG2R61     CG2R61      CG302       FGA3
   16    12    13    14	 9 ;      CG302     CG2R61     CG2R61     CG2R61
   16    12    13    56	 9 ;      CG302     CG2R61     CG2R61      HGR61
   11    12    13    14	 9 ;     CG2R61     CG2R61     CG2R61     CG2R61
   11    12    13    56	 9 ;     CG2R61     CG2R61     CG2R61      HGR61
   12    13    14    15	 9 ;     CG2R61     CG2R61     CG2R61     CG2R61
   12    13    14    57	 9 ;     CG2R61     CG2R61     CG2R61      HGR61
   56    13    14    15	 9 ;      HGR61     CG2R61     CG2R61     CG2R61
   56    13    14    57	 9 ;      HGR61     CG2R61     CG2R61      HGR61
   13    14    15    10	 9 ;     CG2R61     CG2R61     CG2R61     CG2R61
   13    14    15    58	 9 ;     CG2R61     CG2R61     CG2R61      HGR61
   57    14    15    10	 9 ;      HGR61     CG2R61     CG2R61     CG2R61
   57    14    15    58	 9 ;      HGR61     CG2R61     CG2R61      HGR61
    1    20    21    26	 9 ;      CG311      CG321     CG2R61     CG2R61
    1    20    21    22	 9 ;      CG311      CG321     CG2R61     CG2R61
   59    20    21    26	 9 ;       HGA2      CG321     CG2R61     CG2R61
   59    20    21    22	 9 ;       HGA2      CG321     CG2R61     CG2R61
   60    20    21    26	 9 ;       HGA2      CG321     CG2R61     CG2R61
   60    20    21    22	 9 ;       HGA2      CG321     CG2R61     CG2R61
   20    21    26    25	 9 ;      CG321     CG2R61     CG2R61     CG2R61
   20    21    26    65	 9 ;      CG321     CG2R61     CG2R61      HGR61
   22    21    26    25	 9 ;     CG2R61     CG2R61     CG2R61     CG2R61
   22    21    26    65	 9 ;     CG2R61     CG2R61     CG2R61      HGR61
   20    21    22    23	 9 ;      CG321     CG2R61     CG2R61     CG2R61
   20    21    22    61	 9 ;      CG321     CG2R61     CG2R61      HGR61
   26    21    22    23	 9 ;     CG2R61     CG2R61     CG2R61     CG2R61
   26    21    22    61	 9 ;     CG2R61     CG2R61     CG2R61      HGR61
   21    22    23    24	 9 ;     CG2R61     CG2R61     CG2R61     CG2R61
   21    22    23    62	 9 ;     CG2R61     CG2R61     CG2R61      HGR61
   61    22    23    24	 9 ;      HGR61     CG2R61     CG2R61     CG2R61
   61    22    23    62	 9 ;      HGR61     CG2R61     CG2R61      HGR61
   22    23    24    25	 9 ;     CG2R61     CG2R61     CG2R61     CG2R61
   22    23    24    63	 9 ;     CG2R61     CG2R61     CG2R61      HGR61
   62    23    24    25	 9 ;      HGR61     CG2R61     CG2R61     CG2R61
   62    23    24    63	 9 ;      HGR61     CG2R61     CG2R61      HGR61
   23    24    25    26	 9 ;     CG2R61     CG2R61     CG2R61     CG2R61
   23    24    25    64	 9 ;     CG2R61     CG2R61     CG2R61      HGR61
   63    24    25    26	 9 ;      HGR61     CG2R61     CG2R61     CG2R61
   63    24    25    64	 9 ;      HGR61     CG2R61     CG2R61      HGR61
   24    25    26    21	 9 ;     CG2R61     CG2R61     CG2R61     CG2R61
   24    25    26    65	 9 ;     CG2R61     CG2R61     CG2R61      HGR61
   64    25    26    21	 9 ;      HGR61     CG2R61     CG2R61     CG2R61
   64    25    26    65	 9 ;      HGR61     CG2R61     CG2R61      HGR61
   30    27    28    29	 9 ;       HGP1      NG2S1      CG2O1      OG2D1
   30    27    28    31	 9 ;       HGP1      NG2S1      CG2O1      CG311
    1    27    28    29	 9 ;      CG311      NG2S1      CG2O1      OG2D1
    1    27    28    31	 9 ;      CG311      NG2S1      CG2O1      CG311
   29    28    31    32	 9 ;      OG2D1      CG2O1      CG311      NG311
   29    28    31    37	 9 ;      OG2D1      CG2O1      CG311     CG2DC2
   29    28    31    77	 9 ;      OG2D1      CG2O1      CG311       HGA1
   27    28    31    32	 9 ;      NG2S1      CG2O1      CG311      NG311
   27    28    31    37	 9 ;      NG2S1      CG2O1      CG311     CG2DC2
   27    28    31    77	 9 ;      NG2S1      CG2O1      CG311       HGA1
   28    31    32    34	 9 ;      CG2O1      CG311      NG311     HGPAM1
   28    31    32    33	 9 ;      CG2O1      CG311      NG311     CG2D1O
   37    31    32    34	 9 ;     CG2DC2      CG311      NG311     HGPAM1
   37    31    32    33	 9 ;     CG2DC2      CG311      NG311     CG2D1O
   77    31    32    34	 9 ;       HGA1      CG311      NG311     HGPAM1
   77    31    32    33	 9 ;       HGA1      CG311      NG311     CG2D1O
   28    31    37    36	 9 ;      CG2O1      CG311     CG2DC2     CG2DC2
   28    31    37    68	 9 ;      CG2O1      CG311     CG2DC2       HGA4
   32    31    37    36	 9 ;      NG311      CG311     CG2DC2     CG2DC2
   32    31    37    68	 9 ;      NG311      CG311     CG2DC2       HGA4
   77    31    37    36	 9 ;       HGA1      CG311     CG2DC2     CG2DC2
   77    31    37    68	 9 ;       HGA1      CG311     CG2DC2       HGA4
   31    32    33    38	 9 ;      CG311      NG311     CG2D1O      NG301
   31    32    33    35	 9 ;      CG311      NG311     CG2D1O     CG2DC1
   34    32    33    38	 9 ;     HGPAM1      NG311     CG2D1O      NG301
   34    32    33    35	 9 ;     HGPAM1      NG311     CG2D1O     CG2DC1
   32    33    38    39	 9 ;      NG311     CG2D1O      NG301      SG3O2
   32    33    38    43	 9 ;      NG311     CG2D1O      NG301     CG2R61
   35    33    38    39	 9 ;     CG2DC1     CG2D1O      NG301      SG3O2
   35    33    38    43	 9 ;     CG2DC1     CG2D1O      NG301     CG2R61
   32    33    35    36	 9 ;      NG311     CG2D1O     CG2DC1     CG2DC2
   32    33    35    66	 9 ;      NG311     CG2D1O     CG2DC1       HGA4
   38    33    35    36	 9 ;      NG301     CG2D1O     CG2DC1     CG2DC2
   38    33    35    66	 9 ;      NG301     CG2D1O     CG2DC1       HGA4
   33    35    36    37	 9 ;     CG2D1O     CG2DC1     CG2DC2     CG2DC2
   33    35    36    67	 9 ;     CG2D1O     CG2DC1     CG2DC2       HGA4
   66    35    36    37	 9 ;       HGA4     CG2DC1     CG2DC2     CG2DC2
   66    35    36    67	 9 ;       HGA4     CG2DC1     CG2DC2       HGA4
   35    36    37    31	 9 ;     CG2DC1     CG2DC2     CG2DC2      CG311
   35    36    37    68	 9 ;     CG2DC1     CG2DC2     CG2DC2       HGA4
   67    36    37    31	 9 ;       HGA4     CG2DC2     CG2DC2      CG311
   67    36    37    68	 9 ;       HGA4     CG2DC2     CG2DC2       HGA4
   33    38    39    41	 9 ;     CG2D1O      NG301      SG3O2      OG2P1
   33    38    39    42	 9 ;     CG2D1O      NG301      SG3O2      CG331
   33    38    39    40	 9 ;     CG2D1O      NG301      SG3O2      OG2P1
   43    38    39    41	 9 ;     CG2R61      NG301      SG3O2      OG2P1
   43    38    39    42	 9 ;     CG2R61      NG301      SG3O2      CG331
   43    38    39    40	 9 ;     CG2R61      NG301      SG3O2      OG2P1
   39    38    43    44	 9 ;      SG3O2      NG301     CG2R61     CG2R61
   39    38    43    48	 9 ;      SG3O2      NG301     CG2R61     CG2R61
   33    38    43    44	 9 ;     CG2D1O      NG301     CG2R61     CG2R61
   33    38    43    48	 9 ;     CG2D1O      NG301     CG2R61     CG2R61
   41    39    42    69	 9 ;      OG2P1      SG3O2      CG331       HGA3
   41    39    42    70	 9 ;      OG2P1      SG3O2      CG331       HGA3
   41    39    42    71	 9 ;      OG2P1      SG3O2      CG331       HGA3
   40    39    42    69	 9 ;      OG2P1      SG3O2      CG331       HGA3
   40    39    42    70	 9 ;      OG2P1      SG3O2      CG331       HGA3
   40    39    42    71	 9 ;      OG2P1      SG3O2      CG331       HGA3
   38    39    42    69	 9 ;      NG301      SG3O2      CG331       HGA3
   38    39    42    70	 9 ;      NG301      SG3O2      CG331       HGA3
   38    39    42    71	 9 ;      NG301      SG3O2      CG331       HGA3
   38    43    44    45	 9 ;      NG301     CG2R61     CG2R61     CG2R61
   38    43    44    72	 9 ;      NG301     CG2R61     CG2R61      HGR61
   48    43    44    45	 9 ;     CG2R61     CG2R61     CG2R61     CG2R61
   48    43    44    72	 9 ;     CG2R61     CG2R61     CG2R61      HGR61
   38    43    48    47	 9 ;      NG301     CG2R61     CG2R61     CG2R61
   38    43    48    76	 9 ;      NG301     CG2R61     CG2R61      HGR61
   44    43    48    47	 9 ;     CG2R61     CG2R61     CG2R61     CG2R61
   44    43    48    76	 9 ;     CG2R61     CG2R61     CG2R61      HGR61
   43    44    45    46	 9 ;     CG2R61     CG2R61     CG2R61     CG2R61
   43    44    45    73	 9 ;     CG2R61     CG2R61     CG2R61      HGR61
   72    44    45    46	 9 ;      HGR61     CG2R61     CG2R61     CG2R61
   72    44    45    73	 9 ;      HGR61     CG2R61     CG2R61      HGR61
   44    45    46    47	 9 ;     CG2R61     CG2R61     CG2R61     CG2R61
   44    45    46    74	 9 ;     CG2R61     CG2R61     CG2R61      HGR61
   73    45    46    47	 9 ;      HGR61     CG2R61     CG2R61     CG2R61
   73    45    46    74	 9 ;      HGR61     CG2R61     CG2R61      HGR61
   45    46    47    48	 9 ;     CG2R61     CG2R61     CG2R61     CG2R61
   45    46    47    75	 9 ;     CG2R61     CG2R61     CG2R61      HGR61
   74    46    47    48	 9 ;      HGR61     CG2R61     CG2R61     CG2R61
   74    46    47    75	 9 ;      HGR61     CG2R61     CG2R61      HGR61
   46    47    48    43	 9 ;     CG2R61     CG2R61     CG2R61     CG2R61
   46    47    48    76	 9 ;     CG2R61     CG2R61     CG2R61      HGR61
   75    47    48    43	 9 ;      HGR61     CG2R61     CG2R61     CG2R61
   75    47    48    76	 9 ;      HGR61     CG2R61     CG2R61      HGR61

[ dihedrals ]
;	ai	  aj	ak	  al funct			  c0			c1			  c2			c3
   28    31    27    29	 2
   33    35    38    32	 2

