; Created by cgenff_charmm2gmx.py

[ moleculetype ]
; Name			   nrexcl
LIG				 3

[ atoms ]
;	 nr		  type	resnr residue  atom   cgnr	   charge		mass  typeB    chargeB		massB
; residue	 1 LIG rtp LIG q	qsum
     1      CG311      1    LIG     C1      1      0.093     12.011   ;
     2      CG311      1    LIG     C2      2     -0.007     12.011   ;
     3      CG321      1    LIG     C3      3     -0.153     12.011   ;
     4     CG2R61      1    LIG     C4      4      0.057     12.011   ;
     5     CG2R61      1    LIG     C5      5     -0.218     12.011   ;
     6     CG2R66      1    LIG     C6      6      0.261     12.011   ;
     7       FGR1      1    LIG     F1      7     -0.210     18.998   ;
     8     CG2R61      1    LIG     C7      8     -0.240     12.011   ;
     9     CG2R66      1    LIG     C8      9      0.261     12.011   ;
    10     CG2R61      1    LIG     C9     10     -0.218     12.011   ;
    11       FGR1      1    LIG     F2     11     -0.210     18.998   ;
    12      NG2S1      1    LIG     N1     12     -0.339     14.007   ;
    13      CG2O1      1    LIG    C10     13      0.488     12.011   ;
    14      OG2D1      1    LIG     O1     14     -0.509     15.999   ;
    15      CG331      1    LIG    C11     15     -0.270     12.011   ;
    16       HGP1      1    LIG     H1     16      0.261      1.008   ;
    17      OG311      1    LIG     O2     17     -0.625     15.999   ;
    18       HGP1      1    LIG     H2     18      0.415      1.008   ;
    19      CG324      1    LIG    C12     19      0.186     12.011   ;
    20      NG3P2      1    LIG     N2     20     -0.485     14.007   ;
    21       HGP2      1    LIG     H3     21      0.343      1.008   ;
    22       HGP2      1    LIG     H4     22      0.343      1.008   ;
    23     CG3C31      1    LIG    C13     23      0.491     12.011   ;
    24     CG3C31      1    LIG    C14     24     -0.158     12.011   ;
    25     CG3C31      1    LIG    C15     25     -0.158     12.011   ;
    26     CG2R51      1    LIG    C16     26      0.116     12.011   ;
    27     NG3C51      1    LIG     N3     27     -0.347     14.007   ;
    28     NG3C51      1    LIG     N4     28     -0.418     14.007   ;
    29       HGP1      1    LIG     HN     29      0.308      1.008   ;
    30     NG3C51      1    LIG     N5     30     -0.200     14.007   ;
    31     CG2R51      1    LIG    C17     31     -0.432     12.011   ;
    32      CG321      1    LIG    C18     32      0.069     12.011   ;
    33      CG301      1    LIG    C19     33     -0.036     12.011   ;
    34      CG331      1    LIG    C20     34     -0.263     12.011   ;
    35      CG331      1    LIG    C21     35     -0.263     12.011   ;
    36      CG331      1    LIG    C22     36     -0.263     12.011   ;
    37       HGA1      1    LIG     HC     37      0.090      1.008   ;
    38       HGA1      1    LIG    HC1     38      0.090      1.008   ;
    39       HGA2      1    LIG    HC2     39      0.090      1.008   ;
    40       HGA2      1    LIG    HC3     40      0.090      1.008   ;
    41      HGR62      1    LIG    HC4     41      0.174      1.008   ;
    42      HGR62      1    LIG    HC5     42      0.186      1.008   ;
    43      HGR62      1    LIG    HC6     43      0.174      1.008   ;
    44       HGA2      1    LIG    HC7     44      0.090      1.008   ;
    45       HGA2      1    LIG    HC8     45      0.090      1.008   ;
    46       HGA2      1    LIG    HC9     46      0.090      1.008   ;
    47       HGA2      1    LIG   HC10     47      0.090      1.008   ;
    48       HGA2      1    LIG   HC11     48      0.090      1.008   ;
    49       HGA2      1    LIG   HC12     49      0.090      1.008   ;
    50       HGP1      1    LIG    HN1     50      0.352      1.008   ;
    51      HGR52      1    LIG   HC13     51      0.284      1.008   ;
    52       HGA2      1    LIG   HC14     52      0.090      1.008   ;
    53       HGA2      1    LIG   HC15     53      0.090      1.008   ;
    54       HGA3      1    LIG   HC16     54      0.090      1.008   ;
    55       HGA3      1    LIG   HC17     55      0.090      1.008   ;
    56       HGA3      1    LIG   HC18     56      0.090      1.008   ;
    57       HGA3      1    LIG   HC19     57      0.090      1.008   ;
    58       HGA3      1    LIG   HC20     58      0.090      1.008   ;
    59       HGA3      1    LIG   HC21     59      0.090      1.008   ;
    60       HGA3      1    LIG   HC22     60      0.090      1.008   ;
    61       HGA3      1    LIG   HC23     61      0.090      1.008   ;
    62       HGA3      1    LIG   HC24     62      0.090      1.008   ;
    63       HGA3      1    LIG   HC25     63      0.090      1.008   ;
    64       HGA3      1    LIG   HC26     64      0.090      1.008   ;
    65       HGA3      1    LIG   HC27     65      0.090      1.008   ;

[ bonds ]
;	ai	  aj funct			  c0			c1			  c2			c3
    1    17	 1 ;       CG311      OG311
    1     2	 1 ;       CG311      CG311
    1    19	 1 ;       CG311      CG324
    1    37	 1 ;       CG311       HGA1
    2    12	 1 ;       CG311      NG2S1
    2     3	 1 ;       CG311      CG321
    2    38	 1 ;       CG311       HGA1
    3     4	 1 ;       CG321     CG2R61
    3    39	 1 ;       CG321       HGA2
    3    40	 1 ;       CG321       HGA2
    4    10	 1 ;      CG2R61     CG2R61
    4     5	 1 ;      CG2R61     CG2R61
    5     6	 1 ;      CG2R61     CG2R66
    5    41	 1 ;      CG2R61      HGR62
    6     8	 1 ;      CG2R66     CG2R61
    6     7	 1 ;      CG2R66       FGR1
    8     9	 1 ;      CG2R61     CG2R66
    8    42	 1 ;      CG2R61      HGR62
    9    11	 1 ;      CG2R66       FGR1
    9    10	 1 ;      CG2R66     CG2R61
   10    43	 1 ;      CG2R61      HGR62
   12    13	 1 ;       NG2S1      CG2O1
   12    16	 1 ;       NG2S1       HGP1
   13    14	 1 ;       CG2O1      OG2D1
   13    15	 1 ;       CG2O1      CG331
   15    60	 1 ;       CG331       HGA3
   15    61	 1 ;       CG331       HGA3
   15    62	 1 ;       CG331       HGA3
   17    18	 1 ;       OG311       HGP1
   19    20	 1 ;       CG324      NG3P2
   19    44	 1 ;       CG324       HGA2
   19    45	 1 ;       CG324       HGA2
   20    21	 1 ;       NG3P2       HGP2
   20    22	 1 ;       NG3P2       HGP2
   20    23	 1 ;       NG3P2     CG3C31
   23    24	 1 ;      CG3C31     CG3C31
   23    25	 1 ;      CG3C31     CG3C31
   23    26	 1 ;      CG3C31     CG2R51
   24    25	 1 ;      CG3C31     CG3C31
   24    46	 1 ;      CG3C31       HGA2
   24    47	 1 ;      CG3C31       HGA2
   25    48	 1 ;      CG3C31       HGA2
   25    49	 1 ;      CG3C31       HGA2
   26    31	 1 ;      CG2R51     CG2R51
   26    27	 1 ;      CG2R51     NG3C51
   27    29	 1 ;      NG3C51       HGP1
   27    28	 1 ;      NG3C51     NG3C51
   28    30	 1 ;      NG3C51     NG3C51
   28    50	 1 ;      NG3C51       HGP1
   30    31	 1 ;      NG3C51     CG2R51
   30    32	 1 ;      NG3C51      CG321
   31    51	 1 ;      CG2R51      HGR52
   32    33	 1 ;       CG321      CG301
   32    52	 1 ;       CG321       HGA2
   32    53	 1 ;       CG321       HGA2
   33    34	 1 ;       CG301      CG331
   33    36	 1 ;       CG301      CG331
   33    35	 1 ;       CG301      CG331
   34    57	 1 ;       CG331       HGA3
   34    58	 1 ;       CG331       HGA3
   34    59	 1 ;       CG331       HGA3
   35    54	 1 ;       CG331       HGA3
   35    55	 1 ;       CG331       HGA3
   35    56	 1 ;       CG331       HGA3
   36    63	 1 ;       CG331       HGA3
   36    64	 1 ;       CG331       HGA3
   36    65	 1 ;       CG331       HGA3

[ pairs ]
;	ai	  aj funct			  c0			c1			  c2			c3
    1    13	 1
    1    16	 1
    1     4	 1
    1    39	 1
    1    40	 1
    1    21	 1
    1    22	 1
    1    23	 1
    2    18	 1
    2    20	 1
    2    44	 1
    2    45	 1
    2    10	 1
    2     5	 1
    2    14	 1
    2    15	 1
    3    17	 1
    3    19	 1
    3    37	 1
    3    13	 1
    3    16	 1
    3     9	 1
    3    43	 1
    3     6	 1
    3    41	 1
    4    12	 1
    4    38	 1
    4     8	 1
    4     7	 1
    4    11	 1
    5    39	 1
    5    40	 1
    5     9	 1
    5    43	 1
    5    42	 1
    6    10	 1
    6    11	 1
    7    41	 1
    7     9	 1
    7    42	 1
    8    41	 1
    8    43	 1
   10    39	 1
   10    40	 1
   10    41	 1
   10    42	 1
   11    42	 1
   11    43	 1
   12    17	 1
   12    19	 1
   12    37	 1
   12    39	 1
   12    40	 1
   12    60	 1
   12    61	 1
   12    62	 1
   13    38	 1
   14    16	 1
   14    60	 1
   14    61	 1
   14    62	 1
   15    16	 1
   16    38	 1
   17    38	 1
   17    20	 1
   17    44	 1
   17    45	 1
   18    19	 1
   18    37	 1
   19    38	 1
   19    24	 1
   19    25	 1
   19    26	 1
   20    37	 1
   20    46	 1
   20    47	 1
   20    48	 1
   20    49	 1
   20    31	 1
   20    27	 1
   21    44	 1
   21    45	 1
   21    24	 1
   21    25	 1
   21    26	 1
   22    44	 1
   22    45	 1
   22    24	 1
   22    25	 1
   22    26	 1
   23    44	 1
   23    45	 1
   23    30	 1
   23    51	 1
   23    29	 1
   23    28	 1
   24    31	 1
   24    27	 1
   25    31	 1
   25    27	 1
   26    46	 1
   26    47	 1
   26    48	 1
   26    49	 1
   26    50	 1
   26    32	 1
   27    51	 1
   27    32	 1
   28    51	 1
   28    33	 1
   28    52	 1
   28    53	 1
   29    31	 1
   29    30	 1
   29    50	 1
   30    34	 1
   30    36	 1
   30    35	 1
   31    50	 1
   31    33	 1
   31    52	 1
   31    53	 1
   32    50	 1
   32    51	 1
   32    57	 1
   32    58	 1
   32    59	 1
   32    63	 1
   32    64	 1
   32    65	 1
   32    54	 1
   32    55	 1
   32    56	 1
   34    52	 1
   34    53	 1
   34    63	 1
   34    64	 1
   34    65	 1
   34    54	 1
   34    55	 1
   34    56	 1
   35    52	 1
   35    53	 1
   35    57	 1
   35    58	 1
   35    59	 1
   35    63	 1
   35    64	 1
   35    65	 1
   36    52	 1
   36    53	 1
   36    57	 1
   36    58	 1
   36    59	 1
   36    54	 1
   36    55	 1
   36    56	 1
   37    38	 1
   37    44	 1
   37    45	 1
   38    39	 1
   38    40	 1
   46    48	 1
   46    49	 1
   47    48	 1
   47    49	 1

[ angles ]
;	ai	  aj	ak funct			c0			  c1			c2			  c3
   17     1     2	5 ;      OG311      CG311      CG311
   17     1    19	5 ;      OG311      CG311      CG324
   17     1    37	5 ;      OG311      CG311       HGA1
    2     1    19	5 ;      CG311      CG311      CG324
    2     1    37	5 ;      CG311      CG311       HGA1
   19     1    37	5 ;      CG324      CG311       HGA1
    1     2    12	5 ;      CG311      CG311      NG2S1
    1     2     3	5 ;      CG311      CG311      CG321
    1     2    38	5 ;      CG311      CG311       HGA1
   12     2     3	5 ;      NG2S1      CG311      CG321
   12     2    38	5 ;      NG2S1      CG311       HGA1
    3     2    38	5 ;      CG321      CG311       HGA1
    2     3     4	5 ;      CG311      CG321     CG2R61
    2     3    39	5 ;      CG311      CG321       HGA2
    2     3    40	5 ;      CG311      CG321       HGA2
    4     3    39	5 ;     CG2R61      CG321       HGA2
    4     3    40	5 ;     CG2R61      CG321       HGA2
   39     3    40	5 ;       HGA2      CG321       HGA2
   10     4     3	5 ;     CG2R61     CG2R61      CG321
   10     4     5	5 ;     CG2R61     CG2R61     CG2R61
    3     4     5	5 ;      CG321     CG2R61     CG2R61
    4     5     6	5 ;     CG2R61     CG2R61     CG2R66
    4     5    41	5 ;     CG2R61     CG2R61      HGR62
    6     5    41	5 ;     CG2R66     CG2R61      HGR62
    8     6     5	5 ;     CG2R61     CG2R66     CG2R61
    8     6     7	5 ;     CG2R61     CG2R66       FGR1
    5     6     7	5 ;     CG2R61     CG2R66       FGR1
    9     8     6	5 ;     CG2R66     CG2R61     CG2R66
    9     8    42	5 ;     CG2R66     CG2R61      HGR62
    6     8    42	5 ;     CG2R66     CG2R61      HGR62
   11     9    10	5 ;       FGR1     CG2R66     CG2R61
   11     9     8	5 ;       FGR1     CG2R66     CG2R61
   10     9     8	5 ;     CG2R61     CG2R66     CG2R61
    9    10     4	5 ;     CG2R66     CG2R61     CG2R61
    9    10    43	5 ;     CG2R66     CG2R61      HGR62
    4    10    43	5 ;     CG2R61     CG2R61      HGR62
   13    12     2	5 ;      CG2O1      NG2S1      CG311
   13    12    16	5 ;      CG2O1      NG2S1       HGP1
    2    12    16	5 ;      CG311      NG2S1       HGP1
   14    13    15	5 ;      OG2D1      CG2O1      CG331
   14    13    12	5 ;      OG2D1      CG2O1      NG2S1
   15    13    12	5 ;      CG331      CG2O1      NG2S1
   13    15    60	5 ;      CG2O1      CG331       HGA3
   13    15    61	5 ;      CG2O1      CG331       HGA3
   13    15    62	5 ;      CG2O1      CG331       HGA3
   60    15    61	5 ;       HGA3      CG331       HGA3
   60    15    62	5 ;       HGA3      CG331       HGA3
   61    15    62	5 ;       HGA3      CG331       HGA3
   18    17     1	5 ;       HGP1      OG311      CG311
    1    19    20	5 ;      CG311      CG324      NG3P2
    1    19    44	5 ;      CG311      CG324       HGA2
    1    19    45	5 ;      CG311      CG324       HGA2
   20    19    44	5 ;      NG3P2      CG324       HGA2
   20    19    45	5 ;      NG3P2      CG324       HGA2
   44    19    45	5 ;       HGA2      CG324       HGA2
   21    20    22	5 ;       HGP2      NG3P2       HGP2
   21    20    19	5 ;       HGP2      NG3P2      CG324
   21    20    23	5 ;       HGP2      NG3P2     CG3C31
   22    20    19	5 ;       HGP2      NG3P2      CG324
   22    20    23	5 ;       HGP2      NG3P2     CG3C31
   19    20    23	5 ;      CG324      NG3P2     CG3C31
   24    23    20	5 ;     CG3C31     CG3C31      NG3P2
   24    23    25	5 ;     CG3C31     CG3C31     CG3C31
   24    23    26	5 ;     CG3C31     CG3C31     CG2R51
   20    23    25	5 ;      NG3P2     CG3C31     CG3C31
   20    23    26	5 ;      NG3P2     CG3C31     CG2R51
   25    23    26	5 ;     CG3C31     CG3C31     CG2R51
   25    24    23	5 ;     CG3C31     CG3C31     CG3C31
   25    24    46	5 ;     CG3C31     CG3C31       HGA2
   25    24    47	5 ;     CG3C31     CG3C31       HGA2
   23    24    46	5 ;     CG3C31     CG3C31       HGA2
   23    24    47	5 ;     CG3C31     CG3C31       HGA2
   46    24    47	5 ;       HGA2     CG3C31       HGA2
   24    25    23	5 ;     CG3C31     CG3C31     CG3C31
   24    25    48	5 ;     CG3C31     CG3C31       HGA2
   24    25    49	5 ;     CG3C31     CG3C31       HGA2
   23    25    48	5 ;     CG3C31     CG3C31       HGA2
   23    25    49	5 ;     CG3C31     CG3C31       HGA2
   48    25    49	5 ;       HGA2     CG3C31       HGA2
   23    26    31	5 ;     CG3C31     CG2R51     CG2R51
   23    26    27	5 ;     CG3C31     CG2R51     NG3C51
   31    26    27	5 ;     CG2R51     CG2R51     NG3C51
   26    27    29	5 ;     CG2R51     NG3C51       HGP1
   26    27    28	5 ;     CG2R51     NG3C51     NG3C51
   29    27    28	5 ;       HGP1     NG3C51     NG3C51
   27    28    30	5 ;     NG3C51     NG3C51     NG3C51
   27    28    50	5 ;     NG3C51     NG3C51       HGP1
   30    28    50	5 ;     NG3C51     NG3C51       HGP1
   31    30    28	5 ;     CG2R51     NG3C51     NG3C51
   31    30    32	5 ;     CG2R51     NG3C51      CG321
   28    30    32	5 ;     NG3C51     NG3C51      CG321
   26    31    30	5 ;     CG2R51     CG2R51     NG3C51
   26    31    51	5 ;     CG2R51     CG2R51      HGR52
   30    31    51	5 ;     NG3C51     CG2R51      HGR52
   30    32    33	5 ;     NG3C51      CG321      CG301
   30    32    52	5 ;     NG3C51      CG321       HGA2
   30    32    53	5 ;     NG3C51      CG321       HGA2
   33    32    52	5 ;      CG301      CG321       HGA2
   33    32    53	5 ;      CG301      CG321       HGA2
   52    32    53	5 ;       HGA2      CG321       HGA2
   34    33    32	5 ;      CG331      CG301      CG321
   34    33    36	5 ;      CG331      CG301      CG331
   34    33    35	5 ;      CG331      CG301      CG331
   32    33    36	5 ;      CG321      CG301      CG331
   32    33    35	5 ;      CG321      CG301      CG331
   36    33    35	5 ;      CG331      CG301      CG331
   33    34    57	5 ;      CG301      CG331       HGA3
   33    34    58	5 ;      CG301      CG331       HGA3
   33    34    59	5 ;      CG301      CG331       HGA3
   57    34    58	5 ;       HGA3      CG331       HGA3
   57    34    59	5 ;       HGA3      CG331       HGA3
   58    34    59	5 ;       HGA3      CG331       HGA3
   33    35    54	5 ;      CG301      CG331       HGA3
   33    35    55	5 ;      CG301      CG331       HGA3
   33    35    56	5 ;      CG301      CG331       HGA3
   54    35    55	5 ;       HGA3      CG331       HGA3
   54    35    56	5 ;       HGA3      CG331       HGA3
   55    35    56	5 ;       HGA3      CG331       HGA3
   33    36    63	5 ;      CG301      CG331       HGA3
   33    36    64	5 ;      CG301      CG331       HGA3
   33    36    65	5 ;      CG301      CG331       HGA3
   63    36    64	5 ;       HGA3      CG331       HGA3
   63    36    65	5 ;       HGA3      CG331       HGA3
   64    36    65	5 ;       HGA3      CG331       HGA3

[ dihedrals ]
;	ai	  aj	ak	  al funct			  c0			c1			  c2			c3			  c4			c5
    2     1    17    18	 9 ;      CG311      CG311      OG311       HGP1
   19     1    17    18	 9 ;      CG324      CG311      OG311       HGP1
   37     1    17    18	 9 ;       HGA1      CG311      OG311       HGP1
   17     1     2    12	 9 ;      OG311      CG311      CG311      NG2S1
   17     1     2     3	 9 ;      OG311      CG311      CG311      CG321
   17     1     2    38	 9 ;      OG311      CG311      CG311       HGA1
   19     1     2    12	 9 ;      CG324      CG311      CG311      NG2S1
   19     1     2     3	 9 ;      CG324      CG311      CG311      CG321
   19     1     2    38	 9 ;      CG324      CG311      CG311       HGA1
   37     1     2    12	 9 ;       HGA1      CG311      CG311      NG2S1
   37     1     2     3	 9 ;       HGA1      CG311      CG311      CG321
   37     1     2    38	 9 ;       HGA1      CG311      CG311       HGA1
   17     1    19    20	 9 ;      OG311      CG311      CG324      NG3P2
   17     1    19    44	 9 ;      OG311      CG311      CG324       HGA2
   17     1    19    45	 9 ;      OG311      CG311      CG324       HGA2
    2     1    19    20	 9 ;      CG311      CG311      CG324      NG3P2
    2     1    19    44	 9 ;      CG311      CG311      CG324       HGA2
    2     1    19    45	 9 ;      CG311      CG311      CG324       HGA2
   37     1    19    20	 9 ;       HGA1      CG311      CG324      NG3P2
   37     1    19    44	 9 ;       HGA1      CG311      CG324       HGA2
   37     1    19    45	 9 ;       HGA1      CG311      CG324       HGA2
    1     2    12    13	 9 ;      CG311      CG311      NG2S1      CG2O1
    1     2    12    16	 9 ;      CG311      CG311      NG2S1       HGP1
    3     2    12    13	 9 ;      CG321      CG311      NG2S1      CG2O1
    3     2    12    16	 9 ;      CG321      CG311      NG2S1       HGP1
   38     2    12    13	 9 ;       HGA1      CG311      NG2S1      CG2O1
   38     2    12    16	 9 ;       HGA1      CG311      NG2S1       HGP1
    1     2     3     4	 9 ;      CG311      CG311      CG321     CG2R61
    1     2     3    39	 9 ;      CG311      CG311      CG321       HGA2
    1     2     3    40	 9 ;      CG311      CG311      CG321       HGA2
   12     2     3     4	 9 ;      NG2S1      CG311      CG321     CG2R61
   12     2     3    39	 9 ;      NG2S1      CG311      CG321       HGA2
   12     2     3    40	 9 ;      NG2S1      CG311      CG321       HGA2
   38     2     3     4	 9 ;       HGA1      CG311      CG321     CG2R61
   38     2     3    39	 9 ;       HGA1      CG311      CG321       HGA2
   38     2     3    40	 9 ;       HGA1      CG311      CG321       HGA2
    2     3     4    10	 9 ;      CG311      CG321     CG2R61     CG2R61
    2     3     4     5	 9 ;      CG311      CG321     CG2R61     CG2R61
   39     3     4    10	 9 ;       HGA2      CG321     CG2R61     CG2R61
   39     3     4     5	 9 ;       HGA2      CG321     CG2R61     CG2R61
   40     3     4    10	 9 ;       HGA2      CG321     CG2R61     CG2R61
   40     3     4     5	 9 ;       HGA2      CG321     CG2R61     CG2R61
    3     4    10     9	 9 ;      CG321     CG2R61     CG2R61     CG2R66
    3     4    10    43	 9 ;      CG321     CG2R61     CG2R61      HGR62
    5     4    10     9	 9 ;     CG2R61     CG2R61     CG2R61     CG2R66
    5     4    10    43	 9 ;     CG2R61     CG2R61     CG2R61      HGR62
   10     4     5     6	 9 ;     CG2R61     CG2R61     CG2R61     CG2R66
   10     4     5    41	 9 ;     CG2R61     CG2R61     CG2R61      HGR62
    3     4     5     6	 9 ;      CG321     CG2R61     CG2R61     CG2R66
    3     4     5    41	 9 ;      CG321     CG2R61     CG2R61      HGR62
    4     5     6     8	 9 ;     CG2R61     CG2R61     CG2R66     CG2R61
    4     5     6     7	 9 ;     CG2R61     CG2R61     CG2R66       FGR1
   41     5     6     8	 9 ;      HGR62     CG2R61     CG2R66     CG2R61
   41     5     6     7	 9 ;      HGR62     CG2R61     CG2R66       FGR1
    5     6     8     9	 9 ;     CG2R61     CG2R66     CG2R61     CG2R66
    5     6     8    42	 9 ;     CG2R61     CG2R66     CG2R61      HGR62
    7     6     8     9	 9 ;       FGR1     CG2R66     CG2R61     CG2R66
    7     6     8    42	 9 ;       FGR1     CG2R66     CG2R61      HGR62
    6     8     9    11	 9 ;     CG2R66     CG2R61     CG2R66       FGR1
    6     8     9    10	 9 ;     CG2R66     CG2R61     CG2R66     CG2R61
   42     8     9    11	 9 ;      HGR62     CG2R61     CG2R66       FGR1
   42     8     9    10	 9 ;      HGR62     CG2R61     CG2R66     CG2R61
   11     9    10     4	 9 ;       FGR1     CG2R66     CG2R61     CG2R61
   11     9    10    43	 9 ;       FGR1     CG2R66     CG2R61      HGR62
    8     9    10     4	 9 ;     CG2R61     CG2R66     CG2R61     CG2R61
    8     9    10    43	 9 ;     CG2R61     CG2R66     CG2R61      HGR62
    2    12    13    14	 9 ;      CG311      NG2S1      CG2O1      OG2D1
    2    12    13    15	 9 ;      CG311      NG2S1      CG2O1      CG331
   16    12    13    14	 9 ;       HGP1      NG2S1      CG2O1      OG2D1
   16    12    13    15	 9 ;       HGP1      NG2S1      CG2O1      CG331
   14    13    15    60	 9 ;      OG2D1      CG2O1      CG331       HGA3
   14    13    15    61	 9 ;      OG2D1      CG2O1      CG331       HGA3
   14    13    15    62	 9 ;      OG2D1      CG2O1      CG331       HGA3
   12    13    15    60	 9 ;      NG2S1      CG2O1      CG331       HGA3
   12    13    15    61	 9 ;      NG2S1      CG2O1      CG331       HGA3
   12    13    15    62	 9 ;      NG2S1      CG2O1      CG331       HGA3
    1    19    20    21	 9 ;      CG311      CG324      NG3P2       HGP2
    1    19    20    22	 9 ;      CG311      CG324      NG3P2       HGP2
    1    19    20    23	 9 ;      CG311      CG324      NG3P2     CG3C31
   44    19    20    21	 9 ;       HGA2      CG324      NG3P2       HGP2
   44    19    20    22	 9 ;       HGA2      CG324      NG3P2       HGP2
   44    19    20    23	 9 ;       HGA2      CG324      NG3P2     CG3C31
   45    19    20    21	 9 ;       HGA2      CG324      NG3P2       HGP2
   45    19    20    22	 9 ;       HGA2      CG324      NG3P2       HGP2
   45    19    20    23	 9 ;       HGA2      CG324      NG3P2     CG3C31
   21    20    23    24	 9 ;       HGP2      NG3P2     CG3C31     CG3C31
   21    20    23    25	 9 ;       HGP2      NG3P2     CG3C31     CG3C31
   21    20    23    26	 9 ;       HGP2      NG3P2     CG3C31     CG2R51
   22    20    23    24	 9 ;       HGP2      NG3P2     CG3C31     CG3C31
   22    20    23    25	 9 ;       HGP2      NG3P2     CG3C31     CG3C31
   22    20    23    26	 9 ;       HGP2      NG3P2     CG3C31     CG2R51
   19    20    23    24	 9 ;      CG324      NG3P2     CG3C31     CG3C31
   19    20    23    25	 9 ;      CG324      NG3P2     CG3C31     CG3C31
   19    20    23    26	 9 ;      CG324      NG3P2     CG3C31     CG2R51
   20    23    24    25	 9 ;      NG3P2     CG3C31     CG3C31     CG3C31
   20    23    24    46	 9 ;      NG3P2     CG3C31     CG3C31       HGA2
   20    23    24    47	 9 ;      NG3P2     CG3C31     CG3C31       HGA2
   25    23    24    46	 9 ;     CG3C31     CG3C31     CG3C31       HGA2
   25    23    24    47	 9 ;     CG3C31     CG3C31     CG3C31       HGA2
   26    23    24    25	 9 ;     CG2R51     CG3C31     CG3C31     CG3C31
   26    23    24    46	 9 ;     CG2R51     CG3C31     CG3C31       HGA2
   26    23    24    47	 9 ;     CG2R51     CG3C31     CG3C31       HGA2
   24    23    25    48	 9 ;     CG3C31     CG3C31     CG3C31       HGA2
   24    23    25    49	 9 ;     CG3C31     CG3C31     CG3C31       HGA2
   20    23    25    24	 9 ;      NG3P2     CG3C31     CG3C31     CG3C31
   20    23    25    48	 9 ;      NG3P2     CG3C31     CG3C31       HGA2
   20    23    25    49	 9 ;      NG3P2     CG3C31     CG3C31       HGA2
   26    23    25    24	 9 ;     CG2R51     CG3C31     CG3C31     CG3C31
   26    23    25    48	 9 ;     CG2R51     CG3C31     CG3C31       HGA2
   26    23    25    49	 9 ;     CG2R51     CG3C31     CG3C31       HGA2
   24    23    26    31	 9 ;     CG3C31     CG3C31     CG2R51     CG2R51
   24    23    26    27	 9 ;     CG3C31     CG3C31     CG2R51     NG3C51
   20    23    26    31	 9 ;      NG3P2     CG3C31     CG2R51     CG2R51
   20    23    26    27	 9 ;      NG3P2     CG3C31     CG2R51     NG3C51
   25    23    26    31	 9 ;     CG3C31     CG3C31     CG2R51     CG2R51
   25    23    26    27	 9 ;     CG3C31     CG3C31     CG2R51     NG3C51
   23    24    25    48	 9 ;     CG3C31     CG3C31     CG3C31       HGA2
   23    24    25    49	 9 ;     CG3C31     CG3C31     CG3C31       HGA2
   46    24    25    23	 9 ;       HGA2     CG3C31     CG3C31     CG3C31
   46    24    25    48	 9 ;       HGA2     CG3C31     CG3C31       HGA2
   46    24    25    49	 9 ;       HGA2     CG3C31     CG3C31       HGA2
   47    24    25    23	 9 ;       HGA2     CG3C31     CG3C31     CG3C31
   47    24    25    48	 9 ;       HGA2     CG3C31     CG3C31       HGA2
   47    24    25    49	 9 ;       HGA2     CG3C31     CG3C31       HGA2
   23    26    31    30	 9 ;     CG3C31     CG2R51     CG2R51     NG3C51
   23    26    31    51	 9 ;     CG3C31     CG2R51     CG2R51      HGR52
   27    26    31    30	 9 ;     NG3C51     CG2R51     CG2R51     NG3C51
   27    26    31    51	 9 ;     NG3C51     CG2R51     CG2R51      HGR52
   23    26    27    29	 9 ;     CG3C31     CG2R51     NG3C51       HGP1
   23    26    27    28	 9 ;     CG3C31     CG2R51     NG3C51     NG3C51
   31    26    27    29	 9 ;     CG2R51     CG2R51     NG3C51       HGP1
   31    26    27    28	 9 ;     CG2R51     CG2R51     NG3C51     NG3C51
   26    27    28    30	 9 ;     CG2R51     NG3C51     NG3C51     NG3C51
   26    27    28    50	 9 ;     CG2R51     NG3C51     NG3C51       HGP1
   29    27    28    30	 9 ;       HGP1     NG3C51     NG3C51     NG3C51
   29    27    28    50	 9 ;       HGP1     NG3C51     NG3C51       HGP1
   27    28    30    31	 9 ;     NG3C51     NG3C51     NG3C51     CG2R51
   27    28    30    32	 9 ;     NG3C51     NG3C51     NG3C51      CG321
   50    28    30    31	 9 ;       HGP1     NG3C51     NG3C51     CG2R51
   50    28    30    32	 9 ;       HGP1     NG3C51     NG3C51      CG321
   28    30    31    26	 9 ;     NG3C51     NG3C51     CG2R51     CG2R51
   28    30    31    51	 9 ;     NG3C51     NG3C51     CG2R51      HGR52
   32    30    31    26	 9 ;      CG321     NG3C51     CG2R51     CG2R51
   32    30    31    51	 9 ;      CG321     NG3C51     CG2R51      HGR52
   31    30    32    33	 9 ;     CG2R51     NG3C51      CG321      CG301
   31    30    32    52	 9 ;     CG2R51     NG3C51      CG321       HGA2
   31    30    32    53	 9 ;     CG2R51     NG3C51      CG321       HGA2
   28    30    32    33	 9 ;     NG3C51     NG3C51      CG321      CG301
   28    30    32    52	 9 ;     NG3C51     NG3C51      CG321       HGA2
   28    30    32    53	 9 ;     NG3C51     NG3C51      CG321       HGA2
   30    32    33    34	 9 ;     NG3C51      CG321      CG301      CG331
   30    32    33    36	 9 ;     NG3C51      CG321      CG301      CG331
   30    32    33    35	 9 ;     NG3C51      CG321      CG301      CG331
   52    32    33    34	 9 ;       HGA2      CG321      CG301      CG331
   52    32    33    36	 9 ;       HGA2      CG321      CG301      CG331
   52    32    33    35	 9 ;       HGA2      CG321      CG301      CG331
   53    32    33    34	 9 ;       HGA2      CG321      CG301      CG331
   53    32    33    36	 9 ;       HGA2      CG321      CG301      CG331
   53    32    33    35	 9 ;       HGA2      CG321      CG301      CG331
   32    33    34    57	 9 ;      CG321      CG301      CG331       HGA3
   32    33    34    58	 9 ;      CG321      CG301      CG331       HGA3
   32    33    34    59	 9 ;      CG321      CG301      CG331       HGA3
   36    33    34    57	 9 ;      CG331      CG301      CG331       HGA3
   36    33    34    58	 9 ;      CG331      CG301      CG331       HGA3
   36    33    34    59	 9 ;      CG331      CG301      CG331       HGA3
   35    33    34    57	 9 ;      CG331      CG301      CG331       HGA3
   35    33    34    58	 9 ;      CG331      CG301      CG331       HGA3
   35    33    34    59	 9 ;      CG331      CG301      CG331       HGA3
   34    33    36    63	 9 ;      CG331      CG301      CG331       HGA3
   34    33    36    64	 9 ;      CG331      CG301      CG331       HGA3
   34    33    36    65	 9 ;      CG331      CG301      CG331       HGA3
   32    33    36    63	 9 ;      CG321      CG301      CG331       HGA3
   32    33    36    64	 9 ;      CG321      CG301      CG331       HGA3
   32    33    36    65	 9 ;      CG321      CG301      CG331       HGA3
   35    33    36    63	 9 ;      CG331      CG301      CG331       HGA3
   35    33    36    64	 9 ;      CG331      CG301      CG331       HGA3
   35    33    36    65	 9 ;      CG331      CG301      CG331       HGA3
   34    33    35    54	 9 ;      CG331      CG301      CG331       HGA3
   34    33    35    55	 9 ;      CG331      CG301      CG331       HGA3
   34    33    35    56	 9 ;      CG331      CG301      CG331       HGA3
   32    33    35    54	 9 ;      CG321      CG301      CG331       HGA3
   32    33    35    55	 9 ;      CG321      CG301      CG331       HGA3
   32    33    35    56	 9 ;      CG321      CG301      CG331       HGA3
   36    33    35    54	 9 ;      CG331      CG301      CG331       HGA3
   36    33    35    55	 9 ;      CG331      CG301      CG331       HGA3
   36    33    35    56	 9 ;      CG331      CG301      CG331       HGA3

[ dihedrals ]
;	ai	  aj	ak	  al funct			  c0			c1			  c2			c3
   13    15    12    14	 2

