Good ROcking Metal Altar for Chronical Sinners
   65
    1LIG     C1    1  -1.164   0.527  -1.551
    1LIG     C2    2  -1.242   0.394  -1.521
    1LIG     C3    3  -1.250   0.361  -1.369
    1LIG     C4    4  -1.234   0.214  -1.337
    1LIG     C5    5  -1.329   0.121  -1.381
    1LIG     C6    6  -1.317  -0.014  -1.346
    1LIG     F1    7  -1.413  -0.099  -1.386
    1LIG     C7    8  -1.211  -0.060  -1.271
    1LIG     C8    9  -1.114   0.031  -1.232
    1LIG     C9   10  -1.123   0.167  -1.264
    1LIG     F2   11  -1.009  -0.012  -1.160
    1LIG     N1   12  -1.376   0.389  -1.585
    1LIG    C10   13  -1.389   0.340  -1.715
    1LIG     O1   14  -1.294   0.294  -1.779
    1LIG    C11   15  -1.528   0.350  -1.774
    1LIG     H1   16  -1.441   0.463  -1.563
    1LIG     O2   17  -1.094   0.513  -1.678
    1LIG     H2   18  -1.024   0.580  -1.680
    1LIG    C12   19  -1.249   0.663  -1.552
    1LIG     N2   20  -1.298   0.697  -1.691
    1LIG     H3   21  -1.218   0.725  -1.749
    1LIG     H4   22  -1.321   0.605  -1.734
    1LIG    C13   23  -1.412   0.788  -1.735
    1LIG    C14   24  -1.436   0.811  -1.884
    1LIG    C15   25  -1.395   0.925  -1.797
    1LIG    C16   26  -1.541   0.769  -1.651
    1LIG     N3   27  -1.573   0.853  -1.549
    1LIG     N4   28  -1.687   0.810  -1.496
    1LIG     HN   29  -1.520   0.934  -1.519
    1LIG     N5   30  -1.725   0.699  -1.561
    1LIG    C17   31  -1.637   0.670  -1.663
    1LIG    C18   32  -1.845   0.627  -1.526
    1LIG    C19   33  -1.824   0.506  -1.431
    1LIG    C20   34  -1.675   0.470  -1.420
    1LIG    C21   35  -1.876   0.546  -1.291
    1LIG    C22   36  -1.903   0.383  -1.479
    1LIG     HC   37  -1.088   0.538  -1.473
    1LIG    HC1   38  -1.184   0.313  -1.566
    1LIG    HC2   39  -1.172   0.416  -1.318
    1LIG    HC3   40  -1.347   0.394  -1.331
    1LIG    HC4   41  -1.412   0.154  -1.442
    1LIG    HC5   42  -1.204  -0.164  -1.243
    1LIG    HC6   43  -1.046   0.235  -1.234
    1LIG    HC7   44  -1.334   0.652  -1.485
    1LIG    HC8   45  -1.186   0.744  -1.516
    1LIG    HC9   46  -1.537   0.807  -1.924
    1LIG   HC10   47  -1.358   0.773  -1.950
    1LIG   HC11   48  -1.295   0.968  -1.807
    1LIG   HC12   49  -1.474   0.997  -1.774
    1LIG    HN1   50  -1.737   0.854  -1.420
    1LIG   HC13   51  -1.642   0.589  -1.735
    1LIG   HC14   52  -1.891   0.591  -1.617
    1LIG   HC15   53  -1.914   0.697  -1.478
    1LIG   HC16   54  -1.863   0.462  -1.223
    1LIG   HC17   55  -1.982   0.571  -1.298
    1LIG   HC18   56  -1.820   0.632  -1.255
    1LIG   HC19   57  -1.661   0.398  -1.339
    1LIG   HC20   58  -1.617   0.559  -1.400
    1LIG   HC21   59  -1.642   0.425  -1.514
    1LIG   HC22   60  -1.554   0.255  -1.821
    1LIG   HC23   61  -1.599   0.371  -1.695
    1LIG   HC24   62  -1.530   0.429  -1.849
    1LIG   HC25   63  -1.868   0.353  -1.578
    1LIG   HC26   64  -1.888   0.301  -1.409
    1LIG   HC27   65  -2.009   0.407  -1.484
   0.00000   0.00000   0.00000
