Good ROcking Metal Altar for Chronical Sinners
   82
    1LIG     C1    1  -0.744   0.495  -1.921
    1LIG     C2    2  -0.629   0.584  -1.860
    1LIG     C3    3  -0.657   0.634  -1.717
    1LIG     N1    4  -0.660   0.783  -1.715
    1LIG     H1    5  -0.681   0.815  -1.811
    1LIG     H2    6  -0.567   0.819  -1.694
    1LIG     C4    7  -0.757   0.845  -1.620
    1LIG     C5    8  -0.897   0.807  -1.658
    1LIG     C6    9  -0.979   0.745  -1.563
    1LIG     C7   10  -1.108   0.701  -1.597
    1LIG     C8   11  -1.153   0.719  -1.728
    1LIG     C9   12  -1.072   0.781  -1.823
    1LIG    C10   13  -0.944   0.825  -1.788
    1LIG    C11   14  -1.196   0.634  -1.493
    1LIG     F1   15  -1.329   0.650  -1.520
    1LIG     F2   16  -1.177   0.685  -1.369
    1LIG     F3   17  -1.175   0.501  -1.485
    1LIG     O1   18  -0.498   0.526  -1.864
    1LIG     H3   19  -0.504   0.437  -1.824
    1LIG     N2   20  -0.857   0.459  -1.832
    1LIG    C12   21  -0.921   0.336  -1.838
    1LIG     O2   22  -0.867   0.240  -1.892
    1LIG     H4   23  -0.916   0.537  -1.805
    1LIG    C13   24  -1.059   0.322  -1.783
    1LIG    C14   25  -1.064   0.243  -1.668
    1LIG    C15   26  -1.186   0.207  -1.613
    1LIG    C16   27  -1.306   0.257  -1.662
    1LIG     N3   28  -1.419   0.213  -1.605
    1LIG    C17   29  -1.302   0.359  -1.759
    1LIG    C18   30  -1.524   0.294  -1.605
    1LIG     HN   31  -1.425   0.120  -1.565
    1LIG    C19   32  -1.513   0.419  -1.657
    1LIG    C20   33  -1.424   0.433  -1.765
    1LIG    C21   34  -1.179   0.382  -1.829
    1LIG     N4   35  -1.184   0.133  -1.492
    1LIG    C22   36  -1.088   0.162  -1.387
    1LIG    C23   37  -1.027   0.029  -1.348
    1LIG    C24   38  -1.137  -0.071  -1.383
    1LIG    C25   39  -1.204  -0.006  -1.501
    1LIG     O3   40  -1.265  -0.067  -1.588
    1LIG    C26   41  -1.493   0.499  -1.882
    1LIG    C27   42  -1.434   0.620  -1.949
    1LIG    C28   43  -0.793   0.576  -2.044
    1LIG    C29   44  -0.912   0.530  -2.124
    1LIG    C30   45  -0.894   0.415  -2.204
    1LIG    C31   46  -0.999   0.362  -2.275
    1LIG    C32   47  -1.125   0.421  -2.268
    1LIG    C33   48  -1.144   0.534  -2.189
    1LIG    C34   49  -1.038   0.588  -2.115
    1LIG     HC   50  -0.699   0.403  -1.957
    1LIG    HC1   51  -0.624   0.673  -1.922
    1LIG    HC2   52  -0.579   0.598  -1.650
    1LIG    HC3   53  -0.754   0.596  -1.683
    1LIG    HC4   54  -0.747   0.953  -1.624
    1LIG    HC5   55  -0.736   0.810  -1.519
    1LIG    HC6   56  -0.943   0.731  -1.462
    1LIG    HC7   57  -1.251   0.685  -1.756
    1LIG    HC8   58  -1.108   0.796  -1.924
    1LIG    HC9   59  -0.882   0.873  -1.862
    1LIG   HC10   60  -0.972   0.211  -1.621
    1LIG   HC11   61  -1.618   0.262  -1.562
    1LIG   HC12   62  -1.570   0.503  -1.619
    1LIG   HC13   63  -1.177   0.444  -1.918
    1LIG   HC14   64  -1.011   0.230  -1.424
    1LIG   HC15   65  -1.138   0.207  -1.301
    1LIG   HC16   66  -1.004   0.026  -1.242
    1LIG   HC17   67  -0.938   0.009  -1.407
    1LIG   HC18   68  -1.094  -0.168  -1.409
    1LIG   HC19   69  -1.207  -0.081  -1.300
    1LIG   HC20   70  -1.502   0.423  -1.959
    1LIG   HC21   71  -1.594   0.526  -1.850
    1LIG   HC22   72  -1.483   0.636  -2.045
    1LIG   HC23   73  -1.327   0.604  -1.965
    1LIG   HC24   74  -1.448   0.708  -1.886
    1LIG   HC25   75  -0.709   0.582  -2.113
    1LIG   HC26   76  -0.814   0.678  -2.010
    1LIG   HC27   77  -0.797   0.368  -2.208
    1LIG   HC28   78  -0.984   0.274  -2.337
    1LIG   HC29   79  -1.207   0.379  -2.324
    1LIG   HC30   80  -1.242   0.580  -2.184
    1LIG   HC31   81  -1.054   0.674  -2.052
    1LIG    H38   82  -1.159   0.469  -1.767
   0.00000   0.00000   0.00000
