; Created by cgenff_charmm2gmx.py

[ moleculetype ]
; Name			   nrexcl
LIG				 3

[ atoms ]
;	 nr		  type	resnr residue  atom   cgnr	   charge		mass  typeB    chargeB		massB
; residue	 1 LIG rtp LIG q	qsum
     1      CG311      1    LIG     C1      1     -0.018     12.011   ;
     2      CG311      1    LIG     C2      2      0.094     12.011   ;
     3      CG324      1    LIG     C3      3      0.178     12.011   ;
     4      NG3P2      1    LIG     N1      4     -0.444     14.007   ;
     5       HGP2      1    LIG     H1      5      0.348      1.008   ;
     6       HGP2      1    LIG     H2      6      0.348      1.008   ;
     7      CG324      1    LIG     C4      7      0.171     12.011   ;
     8     CG2R61      1    LIG     C5      8      0.055     12.011   ;
     9     CG2R61      1    LIG     C6      9     -0.038     12.011   ;
    10     CG2R61      1    LIG     C7     10     -0.278     12.011   ;
    11     CG2R61      1    LIG     C8     11     -0.035     12.011   ;
    12     CG2R61      1    LIG     C9     12     -0.089     12.011   ;
    13     CG2R61      1    LIG    C10     13     -0.119     12.011   ;
    14      CG302      1    LIG    C11     14      0.605     12.011   ;
    15       FGA3      1    LIG     F1     15     -0.176     18.998   ;
    16       FGA3      1    LIG     F2     16     -0.176     18.998   ;
    17       FGA3      1    LIG     F3     17     -0.176     18.998   ;
    18      OG311      1    LIG     O1     18     -0.625     15.999   ;
    19       HGP1      1    LIG     H3     19      0.415      1.008   ;
    20      NG2S1      1    LIG     N2     20     -0.328     14.007   ;
    21      CG2O1      1    LIG    C12     21      0.351     12.011   ;
    22      OG2D1      1    LIG     O2     22     -0.490     15.999   ;
    23       HGP1      1    LIG     H4     23      0.232      1.008   ;
    24     CG2DC1      1    LIG    C13     24      0.347     12.011   ;
    25     CG2DC1      1    LIG    C14     25     -0.073     12.011   ;
    26     CG2D2O      1    LIG    C15     26      0.371     12.011   ;
    27     CG2R61      1    LIG    C16     27     -0.091     12.011   ;
    28     NG2R61      1    LIG     N3     28     -0.260     14.007   ;
    29     CG2R61      1    LIG    C17     29     -0.259     12.011   ;
    30     CG2R61      1    LIG    C18     30      0.033     12.011   ;
    31       HGP1      1    LIG     HN     31      0.299      1.008   ;
    32     CG2R61      1    LIG    C19     32     -0.178     12.011   ;
    33     CG2R61      1    LIG    C20     33      0.003     12.011   ;
    34      CG321      1    LIG    C21     34     -0.156     12.011   ;
    35     NG2R53      1    LIG     N4     35     -0.512     14.007   ;
    36     CG3C52      1    LIG    C22     36     -0.032     12.011   ;
    37     CG3C52      1    LIG    C23     37     -0.175     12.011   ;
    38     CG3C52      1    LIG    C24     38     -0.030     12.011   ;
    39     CG2R53      1    LIG    C25     39      0.258     12.011   ;
    40      OG2D1      1    LIG     O3     40     -0.484     15.999   ;
    41      CG321      1    LIG    C26     41     -0.176     12.011   ;
    42      CG331      1    LIG    C27     42     -0.271     12.011   ;
    43      CG321      1    LIG    C28     43     -0.111     12.011   ;
    44     CG2R61      1    LIG    C29     44     -0.019     12.011   ;
    45     CG2R61      1    LIG    C30     45     -0.123     12.011   ;
    46     CG2R61      1    LIG    C31     46     -0.112     12.011   ;
    47     CG2R61      1    LIG    C32     47     -0.116     12.011   ;
    48     CG2R61      1    LIG    C33     48     -0.112     12.011   ;
    49     CG2R61      1    LIG    C34     49     -0.123     12.011   ;
    50       HGA1      1    LIG     HC     50      0.090      1.008   ;
    51       HGA1      1    LIG    HC1     51      0.090      1.008   ;
    52       HGA2      1    LIG    HC2     52      0.090      1.008   ;
    53       HGA2      1    LIG    HC3     53      0.090      1.008   ;
    54       HGA2      1    LIG    HC4     54      0.090      1.008   ;
    55       HGA2      1    LIG    HC5     55      0.090      1.008   ;
    56      HGR61      1    LIG    HC6     56      0.116      1.008   ;
    57      HGR61      1    LIG    HC7     57      0.116      1.008   ;
    58      HGR61      1    LIG    HC8     58      0.116      1.008   ;
    59      HGR61      1    LIG    HC9     59      0.116      1.008   ;
    60       HGA4      1    LIG   HC10     60      0.069      1.008   ;
    61      HGR62      1    LIG   HC11     61      0.178      1.008   ;
    62      HGR61      1    LIG   HC12     62      0.116      1.008   ;
    63       HGA2      1    LIG   HC13     63      0.090      1.008   ;
    64       HGA2      1    LIG   HC14     64      0.090      1.008   ;
    65       HGA2      1    LIG   HC15     65      0.090      1.008   ;
    66       HGA2      1    LIG   HC16     66      0.090      1.008   ;
    67       HGA2      1    LIG   HC17     67      0.090      1.008   ;
    68       HGA2      1    LIG   HC18     68      0.090      1.008   ;
    69       HGA2      1    LIG   HC19     69      0.090      1.008   ;
    70       HGA2      1    LIG   HC20     70      0.090      1.008   ;
    71       HGA2      1    LIG   HC21     71      0.090      1.008   ;
    72       HGA3      1    LIG   HC22     72      0.090      1.008   ;
    73       HGA3      1    LIG   HC23     73      0.090      1.008   ;
    74       HGA3      1    LIG   HC24     74      0.090      1.008   ;
    75       HGA2      1    LIG   HC25     75      0.090      1.008   ;
    76       HGA2      1    LIG   HC26     76      0.090      1.008   ;
    77      HGR61      1    LIG   HC27     77      0.116      1.008   ;
    78      HGR61      1    LIG   HC28     78      0.116      1.008   ;
    79      HGR61      1    LIG   HC29     79      0.116      1.008   ;
    80      HGR61      1    LIG   HC30     80      0.116      1.008   ;
    81      HGR61      1    LIG   HC31     81      0.116      1.008   ;
    82       HGA2      1    LIG    H38     82      0.090      1.008   ;

[ bonds ]
;	ai	  aj funct			  c0			c1			  c2			c3
    1     2	 1 ;       CG311      CG311
    1    43	 1 ;       CG311      CG321
    1    20	 1 ;       CG311      NG2S1
    1    50	 1 ;       CG311       HGA1
    2    18	 1 ;       CG311      OG311
    2     3	 1 ;       CG311      CG324
    2    51	 1 ;       CG311       HGA1
    3     4	 1 ;       CG324      NG3P2
    3    52	 1 ;       CG324       HGA2
    3    53	 1 ;       CG324       HGA2
    4     6	 1 ;       NG3P2       HGP2
    4     5	 1 ;       NG3P2       HGP2
    4     7	 1 ;       NG3P2      CG324
    7     8	 1 ;       CG324     CG2R61
    7    54	 1 ;       CG324       HGA2
    7    55	 1 ;       CG324       HGA2
    8    13	 1 ;      CG2R61     CG2R61
    8     9	 1 ;      CG2R61     CG2R61
    9    10	 1 ;      CG2R61     CG2R61
    9    56	 1 ;      CG2R61      HGR61
   10    11	 1 ;      CG2R61     CG2R61
   10    14	 1 ;      CG2R61      CG302
   11    12	 1 ;      CG2R61     CG2R61
   11    57	 1 ;      CG2R61      HGR61
   12    13	 1 ;      CG2R61     CG2R61
   12    58	 1 ;      CG2R61      HGR61
   13    59	 1 ;      CG2R61      HGR61
   14    17	 1 ;       CG302       FGA3
   14    16	 1 ;       CG302       FGA3
   14    15	 1 ;       CG302       FGA3
   18    19	 1 ;       OG311       HGP1
   20    23	 1 ;       NG2S1       HGP1
   20    21	 1 ;       NG2S1      CG2O1
   21    22	 1 ;       CG2O1      OG2D1
   21    24	 1 ;       CG2O1     CG2DC1
   24    34	 1 ;      CG2DC1      CG321
   24    25	 1 ;      CG2DC1     CG2DC1
   25    26	 1 ;      CG2DC1     CG2D2O
   25    60	 1 ;      CG2DC1       HGA4
   26    27	 1 ;      CG2D2O     CG2R61
   26    35	 1 ;      CG2D2O     NG2R53
   27    29	 1 ;      CG2R61     CG2R61
   27    28	 1 ;      CG2R61     NG2R61
   28    31	 1 ;      NG2R61       HGP1
   28    30	 1 ;      NG2R61     CG2R61
   29    34	 1 ;      CG2R61      CG321
   29    33	 1 ;      CG2R61     CG2R61
   30    32	 1 ;      CG2R61     CG2R61
   30    61	 1 ;      CG2R61      HGR62
   32    33	 1 ;      CG2R61     CG2R61
   32    62	 1 ;      CG2R61      HGR61
   33    41	 1 ;      CG2R61      CG321
   34    63	 1 ;       CG321       HGA2
   34    82	 1 ;       CG321       HGA2
   35    36	 1 ;      NG2R53     CG3C52
   35    39	 1 ;      NG2R53     CG2R53
   36    37	 1 ;      CG3C52     CG3C52
   36    64	 1 ;      CG3C52       HGA2
   36    65	 1 ;      CG3C52       HGA2
   37    38	 1 ;      CG3C52     CG3C52
   37    66	 1 ;      CG3C52       HGA2
   37    67	 1 ;      CG3C52       HGA2
   38    39	 1 ;      CG3C52     CG2R53
   38    68	 1 ;      CG3C52       HGA2
   38    69	 1 ;      CG3C52       HGA2
   39    40	 1 ;      CG2R53      OG2D1
   41    42	 1 ;       CG321      CG331
   41    70	 1 ;       CG321       HGA2
   41    71	 1 ;       CG321       HGA2
   42    72	 1 ;       CG331       HGA3
   42    73	 1 ;       CG331       HGA3
   42    74	 1 ;       CG331       HGA3
   43    44	 1 ;       CG321     CG2R61
   43    75	 1 ;       CG321       HGA2
   43    76	 1 ;       CG321       HGA2
   44    45	 1 ;      CG2R61     CG2R61
   44    49	 1 ;      CG2R61     CG2R61
   45    46	 1 ;      CG2R61     CG2R61
   45    77	 1 ;      CG2R61      HGR61
   46    47	 1 ;      CG2R61     CG2R61
   46    78	 1 ;      CG2R61      HGR61
   47    48	 1 ;      CG2R61     CG2R61
   47    79	 1 ;      CG2R61      HGR61
   48    49	 1 ;      CG2R61     CG2R61
   48    80	 1 ;      CG2R61      HGR61
   49    81	 1 ;      CG2R61      HGR61

[ pairs ]
;	ai	  aj funct			  c0			c1			  c2			c3
    1    19	 1
    1     4	 1
    1    52	 1
    1    53	 1
    1    22	 1
    1    24	 1
    1    45	 1
    1    49	 1
    2    44	 1
    2    75	 1
    2    76	 1
    2    23	 1
    2    21	 1
    2     6	 1
    2     5	 1
    2     7	 1
    3    43	 1
    3    20	 1
    3    50	 1
    3    19	 1
    3     8	 1
    3    54	 1
    3    55	 1
    4    18	 1
    4    51	 1
    4    13	 1
    4     9	 1
    5    52	 1
    5    53	 1
    5     8	 1
    5    54	 1
    5    55	 1
    6    52	 1
    6    53	 1
    6     8	 1
    6    54	 1
    6    55	 1
    7    52	 1
    7    53	 1
    7    12	 1
    7    59	 1
    7    10	 1
    7    56	 1
    8    11	 1
    8    14	 1
    8    58	 1
    9    54	 1
    9    55	 1
    9    12	 1
    9    59	 1
    9    57	 1
    9    17	 1
    9    16	 1
    9    15	 1
   10    13	 1
   10    58	 1
   11    56	 1
   11    17	 1
   11    16	 1
   11    15	 1
   11    59	 1
   12    14	 1
   13    54	 1
   13    55	 1
   13    56	 1
   13    57	 1
   14    56	 1
   14    57	 1
   18    43	 1
   18    20	 1
   18    50	 1
   18    52	 1
   18    53	 1
   19    51	 1
   20    51	 1
   20    44	 1
   20    75	 1
   20    76	 1
   20    34	 1
   20    25	 1
   21    43	 1
   21    50	 1
   21    29	 1
   21    63	 1
   21    82	 1
   21    26	 1
   21    60	 1
   22    23	 1
   22    34	 1
   22    25	 1
   23    43	 1
   23    50	 1
   23    24	 1
   24    27	 1
   24    35	 1
   24    33	 1
   25    29	 1
   25    63	 1
   25    82	 1
   25    28	 1
   25    36	 1
   25    39	 1
   26    34	 1
   26    33	 1
   26    31	 1
   26    30	 1
   26    37	 1
   26    64	 1
   26    65	 1
   26    40	 1
   26    38	 1
   27    60	 1
   27    36	 1
   27    39	 1
   27    32	 1
   27    61	 1
   27    63	 1
   27    82	 1
   27    41	 1
   28    35	 1
   28    34	 1
   28    33	 1
   28    62	 1
   29    35	 1
   29    31	 1
   29    30	 1
   29    62	 1
   29    42	 1
   29    70	 1
   29    71	 1
   30    41	 1
   31    32	 1
   31    61	 1
   32    34	 1
   32    42	 1
   32    70	 1
   32    71	 1
   33    63	 1
   33    82	 1
   33    61	 1
   33    72	 1
   33    73	 1
   33    74	 1
   34    60	 1
   34    41	 1
   35    60	 1
   35    66	 1
   35    67	 1
   35    68	 1
   35    69	 1
   36    40	 1
   36    68	 1
   36    69	 1
   37    40	 1
   38    64	 1
   38    65	 1
   39    64	 1
   39    65	 1
   39    66	 1
   39    67	 1
   40    68	 1
   40    69	 1
   41    62	 1
   43    51	 1
   43    46	 1
   43    77	 1
   43    48	 1
   43    81	 1
   44    50	 1
   44    47	 1
   44    78	 1
   44    80	 1
   45    75	 1
   45    76	 1
   45    48	 1
   45    81	 1
   45    79	 1
   46    49	 1
   46    80	 1
   47    77	 1
   47    81	 1
   48    78	 1
   49    75	 1
   49    76	 1
   49    77	 1
   49    79	 1
   50    51	 1
   50    75	 1
   50    76	 1
   51    52	 1
   51    53	 1
   57    58	 1
   58    59	 1
   61    62	 1
   64    66	 1
   64    67	 1
   65    66	 1
   65    67	 1
   66    68	 1
   66    69	 1
   67    68	 1
   67    69	 1
   70    72	 1
   70    73	 1
   70    74	 1
   71    72	 1
   71    73	 1
   71    74	 1
   77    78	 1
   78    79	 1
   79    80	 1
   80    81	 1

[ angles ]
;	ai	  aj	ak funct			c0			  c1			c2			  c3
    2     1    43	5 ;      CG311      CG311      CG321
    2     1    20	5 ;      CG311      CG311      NG2S1
    2     1    50	5 ;      CG311      CG311       HGA1
   43     1    20	5 ;      CG321      CG311      NG2S1
   43     1    50	5 ;      CG321      CG311       HGA1
   20     1    50	5 ;      NG2S1      CG311       HGA1
   18     2     1	5 ;      OG311      CG311      CG311
   18     2     3	5 ;      OG311      CG311      CG324
   18     2    51	5 ;      OG311      CG311       HGA1
    1     2     3	5 ;      CG311      CG311      CG324
    1     2    51	5 ;      CG311      CG311       HGA1
    3     2    51	5 ;      CG324      CG311       HGA1
    2     3     4	5 ;      CG311      CG324      NG3P2
    2     3    52	5 ;      CG311      CG324       HGA2
    2     3    53	5 ;      CG311      CG324       HGA2
    4     3    52	5 ;      NG3P2      CG324       HGA2
    4     3    53	5 ;      NG3P2      CG324       HGA2
   52     3    53	5 ;       HGA2      CG324       HGA2
    6     4     5	5 ;       HGP2      NG3P2       HGP2
    6     4     3	5 ;       HGP2      NG3P2      CG324
    6     4     7	5 ;       HGP2      NG3P2      CG324
    5     4     3	5 ;       HGP2      NG3P2      CG324
    5     4     7	5 ;       HGP2      NG3P2      CG324
    3     4     7	5 ;      CG324      NG3P2      CG324
    4     7     8	5 ;      NG3P2      CG324     CG2R61
    4     7    54	5 ;      NG3P2      CG324       HGA2
    4     7    55	5 ;      NG3P2      CG324       HGA2
    8     7    54	5 ;     CG2R61      CG324       HGA2
    8     7    55	5 ;     CG2R61      CG324       HGA2
   54     7    55	5 ;       HGA2      CG324       HGA2
    7     8    13	5 ;      CG324     CG2R61     CG2R61
    7     8     9	5 ;      CG324     CG2R61     CG2R61
   13     8     9	5 ;     CG2R61     CG2R61     CG2R61
    8     9    10	5 ;     CG2R61     CG2R61     CG2R61
    8     9    56	5 ;     CG2R61     CG2R61      HGR61
   10     9    56	5 ;     CG2R61     CG2R61      HGR61
    9    10    11	5 ;     CG2R61     CG2R61     CG2R61
    9    10    14	5 ;     CG2R61     CG2R61      CG302
   11    10    14	5 ;     CG2R61     CG2R61      CG302
   12    11    10	5 ;     CG2R61     CG2R61     CG2R61
   12    11    57	5 ;     CG2R61     CG2R61      HGR61
   10    11    57	5 ;     CG2R61     CG2R61      HGR61
   13    12    11	5 ;     CG2R61     CG2R61     CG2R61
   13    12    58	5 ;     CG2R61     CG2R61      HGR61
   11    12    58	5 ;     CG2R61     CG2R61      HGR61
    8    13    12	5 ;     CG2R61     CG2R61     CG2R61
    8    13    59	5 ;     CG2R61     CG2R61      HGR61
   12    13    59	5 ;     CG2R61     CG2R61      HGR61
   10    14    17	5 ;     CG2R61      CG302       FGA3
   10    14    16	5 ;     CG2R61      CG302       FGA3
   10    14    15	5 ;     CG2R61      CG302       FGA3
   17    14    16	5 ;       FGA3      CG302       FGA3
   17    14    15	5 ;       FGA3      CG302       FGA3
   16    14    15	5 ;       FGA3      CG302       FGA3
   19    18     2	5 ;       HGP1      OG311      CG311
    1    20    23	5 ;      CG311      NG2S1       HGP1
    1    20    21	5 ;      CG311      NG2S1      CG2O1
   23    20    21	5 ;       HGP1      NG2S1      CG2O1
   20    21    22	5 ;      NG2S1      CG2O1      OG2D1
   20    21    24	5 ;      NG2S1      CG2O1     CG2DC1
   22    21    24	5 ;      OG2D1      CG2O1     CG2DC1
   21    24    34	5 ;      CG2O1     CG2DC1      CG321
   21    24    25	5 ;      CG2O1     CG2DC1     CG2DC1
   34    24    25	5 ;      CG321     CG2DC1     CG2DC1
   24    25    26	5 ;     CG2DC1     CG2DC1     CG2D2O
   24    25    60	5 ;     CG2DC1     CG2DC1       HGA4
   26    25    60	5 ;     CG2D2O     CG2DC1       HGA4
   25    26    27	5 ;     CG2DC1     CG2D2O     CG2R61
   25    26    35	5 ;     CG2DC1     CG2D2O     NG2R53
   27    26    35	5 ;     CG2R61     CG2D2O     NG2R53
   29    27    26	5 ;     CG2R61     CG2R61     CG2D2O
   29    27    28	5 ;     CG2R61     CG2R61     NG2R61
   26    27    28	5 ;     CG2D2O     CG2R61     NG2R61
   27    28    31	5 ;     CG2R61     NG2R61       HGP1
   27    28    30	5 ;     CG2R61     NG2R61     CG2R61
   31    28    30	5 ;       HGP1     NG2R61     CG2R61
   34    29    27	5 ;      CG321     CG2R61     CG2R61
   34    29    33	5 ;      CG321     CG2R61     CG2R61
   27    29    33	5 ;     CG2R61     CG2R61     CG2R61
   28    30    32	5 ;     NG2R61     CG2R61     CG2R61
   28    30    61	5 ;     NG2R61     CG2R61      HGR62
   32    30    61	5 ;     CG2R61     CG2R61      HGR62
   33    32    30	5 ;     CG2R61     CG2R61     CG2R61
   33    32    62	5 ;     CG2R61     CG2R61      HGR61
   30    32    62	5 ;     CG2R61     CG2R61      HGR61
   29    33    41	5 ;     CG2R61     CG2R61      CG321
   29    33    32	5 ;     CG2R61     CG2R61     CG2R61
   41    33    32	5 ;      CG321     CG2R61     CG2R61
   24    34    29	5 ;     CG2DC1      CG321     CG2R61
   24    34    63	5 ;     CG2DC1      CG321       HGA2
   24    34    82	5 ;     CG2DC1      CG321       HGA2
   29    34    63	5 ;     CG2R61      CG321       HGA2
   29    34    82	5 ;     CG2R61      CG321       HGA2
   63    34    82	5 ;       HGA2      CG321       HGA2
   26    35    36	5 ;     CG2D2O     NG2R53     CG3C52
   26    35    39	5 ;     CG2D2O     NG2R53     CG2R53
   36    35    39	5 ;     CG3C52     NG2R53     CG2R53
   37    36    35	5 ;     CG3C52     CG3C52     NG2R53
   37    36    64	5 ;     CG3C52     CG3C52       HGA2
   37    36    65	5 ;     CG3C52     CG3C52       HGA2
   35    36    64	5 ;     NG2R53     CG3C52       HGA2
   35    36    65	5 ;     NG2R53     CG3C52       HGA2
   64    36    65	5 ;       HGA2     CG3C52       HGA2
   36    37    38	5 ;     CG3C52     CG3C52     CG3C52
   36    37    66	5 ;     CG3C52     CG3C52       HGA2
   36    37    67	5 ;     CG3C52     CG3C52       HGA2
   38    37    66	5 ;     CG3C52     CG3C52       HGA2
   38    37    67	5 ;     CG3C52     CG3C52       HGA2
   66    37    67	5 ;       HGA2     CG3C52       HGA2
   37    38    39	5 ;     CG3C52     CG3C52     CG2R53
   37    38    68	5 ;     CG3C52     CG3C52       HGA2
   37    38    69	5 ;     CG3C52     CG3C52       HGA2
   39    38    68	5 ;     CG2R53     CG3C52       HGA2
   39    38    69	5 ;     CG2R53     CG3C52       HGA2
   68    38    69	5 ;       HGA2     CG3C52       HGA2
   35    39    40	5 ;     NG2R53     CG2R53      OG2D1
   35    39    38	5 ;     NG2R53     CG2R53     CG3C52
   40    39    38	5 ;      OG2D1     CG2R53     CG3C52
   42    41    33	5 ;      CG331      CG321     CG2R61
   42    41    70	5 ;      CG331      CG321       HGA2
   42    41    71	5 ;      CG331      CG321       HGA2
   33    41    70	5 ;     CG2R61      CG321       HGA2
   33    41    71	5 ;     CG2R61      CG321       HGA2
   70    41    71	5 ;       HGA2      CG321       HGA2
   41    42    72	5 ;      CG321      CG331       HGA3
   41    42    73	5 ;      CG321      CG331       HGA3
   41    42    74	5 ;      CG321      CG331       HGA3
   72    42    73	5 ;       HGA3      CG331       HGA3
   72    42    74	5 ;       HGA3      CG331       HGA3
   73    42    74	5 ;       HGA3      CG331       HGA3
    1    43    44	5 ;      CG311      CG321     CG2R61
    1    43    75	5 ;      CG311      CG321       HGA2
    1    43    76	5 ;      CG311      CG321       HGA2
   44    43    75	5 ;     CG2R61      CG321       HGA2
   44    43    76	5 ;     CG2R61      CG321       HGA2
   75    43    76	5 ;       HGA2      CG321       HGA2
   43    44    45	5 ;      CG321     CG2R61     CG2R61
   43    44    49	5 ;      CG321     CG2R61     CG2R61
   45    44    49	5 ;     CG2R61     CG2R61     CG2R61
   44    45    46	5 ;     CG2R61     CG2R61     CG2R61
   44    45    77	5 ;     CG2R61     CG2R61      HGR61
   46    45    77	5 ;     CG2R61     CG2R61      HGR61
   45    46    47	5 ;     CG2R61     CG2R61     CG2R61
   45    46    78	5 ;     CG2R61     CG2R61      HGR61
   47    46    78	5 ;     CG2R61     CG2R61      HGR61
   46    47    48	5 ;     CG2R61     CG2R61     CG2R61
   46    47    79	5 ;     CG2R61     CG2R61      HGR61
   48    47    79	5 ;     CG2R61     CG2R61      HGR61
   49    48    47	5 ;     CG2R61     CG2R61     CG2R61
   49    48    80	5 ;     CG2R61     CG2R61      HGR61
   47    48    80	5 ;     CG2R61     CG2R61      HGR61
   44    49    48	5 ;     CG2R61     CG2R61     CG2R61
   44    49    81	5 ;     CG2R61     CG2R61      HGR61
   48    49    81	5 ;     CG2R61     CG2R61      HGR61

[ dihedrals ]
;	ai	  aj	ak	  al funct			  c0			c1			  c2			c3			  c4			c5
   43     1     2    18	 9 ;      CG321      CG311      CG311      OG311
   43     1     2     3	 9 ;      CG321      CG311      CG311      CG324
   43     1     2    51	 9 ;      CG321      CG311      CG311       HGA1
   20     1     2    18	 9 ;      NG2S1      CG311      CG311      OG311
   20     1     2     3	 9 ;      NG2S1      CG311      CG311      CG324
   20     1     2    51	 9 ;      NG2S1      CG311      CG311       HGA1
   50     1     2    18	 9 ;       HGA1      CG311      CG311      OG311
   50     1     2     3	 9 ;       HGA1      CG311      CG311      CG324
   50     1     2    51	 9 ;       HGA1      CG311      CG311       HGA1
    2     1    43    44	 9 ;      CG311      CG311      CG321     CG2R61
    2     1    43    75	 9 ;      CG311      CG311      CG321       HGA2
    2     1    43    76	 9 ;      CG311      CG311      CG321       HGA2
   20     1    43    44	 9 ;      NG2S1      CG311      CG321     CG2R61
   20     1    43    75	 9 ;      NG2S1      CG311      CG321       HGA2
   20     1    43    76	 9 ;      NG2S1      CG311      CG321       HGA2
   50     1    43    44	 9 ;       HGA1      CG311      CG321     CG2R61
   50     1    43    75	 9 ;       HGA1      CG311      CG321       HGA2
   50     1    43    76	 9 ;       HGA1      CG311      CG321       HGA2
    2     1    20    23	 9 ;      CG311      CG311      NG2S1       HGP1
    2     1    20    21	 9 ;      CG311      CG311      NG2S1      CG2O1
   43     1    20    23	 9 ;      CG321      CG311      NG2S1       HGP1
   43     1    20    21	 9 ;      CG321      CG311      NG2S1      CG2O1
   50     1    20    23	 9 ;       HGA1      CG311      NG2S1       HGP1
   50     1    20    21	 9 ;       HGA1      CG311      NG2S1      CG2O1
    1     2    18    19	 9 ;      CG311      CG311      OG311       HGP1
    3     2    18    19	 9 ;      CG324      CG311      OG311       HGP1
   51     2    18    19	 9 ;       HGA1      CG311      OG311       HGP1
   18     2     3     4	 9 ;      OG311      CG311      CG324      NG3P2
   18     2     3    52	 9 ;      OG311      CG311      CG324       HGA2
   18     2     3    53	 9 ;      OG311      CG311      CG324       HGA2
    1     2     3     4	 9 ;      CG311      CG311      CG324      NG3P2
    1     2     3    52	 9 ;      CG311      CG311      CG324       HGA2
    1     2     3    53	 9 ;      CG311      CG311      CG324       HGA2
   51     2     3     4	 9 ;       HGA1      CG311      CG324      NG3P2
   51     2     3    52	 9 ;       HGA1      CG311      CG324       HGA2
   51     2     3    53	 9 ;       HGA1      CG311      CG324       HGA2
    2     3     4     6	 9 ;      CG311      CG324      NG3P2       HGP2
    2     3     4     5	 9 ;      CG311      CG324      NG3P2       HGP2
    2     3     4     7	 9 ;      CG311      CG324      NG3P2      CG324
   52     3     4     6	 9 ;       HGA2      CG324      NG3P2       HGP2
   52     3     4     5	 9 ;       HGA2      CG324      NG3P2       HGP2
   52     3     4     7	 9 ;       HGA2      CG324      NG3P2      CG324
   53     3     4     6	 9 ;       HGA2      CG324      NG3P2       HGP2
   53     3     4     5	 9 ;       HGA2      CG324      NG3P2       HGP2
   53     3     4     7	 9 ;       HGA2      CG324      NG3P2      CG324
    6     4     7     8	 9 ;       HGP2      NG3P2      CG324     CG2R61
    6     4     7    54	 9 ;       HGP2      NG3P2      CG324       HGA2
    6     4     7    55	 9 ;       HGP2      NG3P2      CG324       HGA2
    5     4     7     8	 9 ;       HGP2      NG3P2      CG324     CG2R61
    5     4     7    54	 9 ;       HGP2      NG3P2      CG324       HGA2
    5     4     7    55	 9 ;       HGP2      NG3P2      CG324       HGA2
    3     4     7     8	 9 ;      CG324      NG3P2      CG324     CG2R61
    3     4     7    54	 9 ;      CG324      NG3P2      CG324       HGA2
    3     4     7    55	 9 ;      CG324      NG3P2      CG324       HGA2
    4     7     8    13	 9 ;      NG3P2      CG324     CG2R61     CG2R61
    4     7     8     9	 9 ;      NG3P2      CG324     CG2R61     CG2R61
   54     7     8    13	 9 ;       HGA2      CG324     CG2R61     CG2R61
   54     7     8     9	 9 ;       HGA2      CG324     CG2R61     CG2R61
   55     7     8    13	 9 ;       HGA2      CG324     CG2R61     CG2R61
   55     7     8     9	 9 ;       HGA2      CG324     CG2R61     CG2R61
    7     8    13    12	 9 ;      CG324     CG2R61     CG2R61     CG2R61
    7     8    13    59	 9 ;      CG324     CG2R61     CG2R61      HGR61
    9     8    13    12	 9 ;     CG2R61     CG2R61     CG2R61     CG2R61
    9     8    13    59	 9 ;     CG2R61     CG2R61     CG2R61      HGR61
    7     8     9    10	 9 ;      CG324     CG2R61     CG2R61     CG2R61
    7     8     9    56	 9 ;      CG324     CG2R61     CG2R61      HGR61
   13     8     9    10	 9 ;     CG2R61     CG2R61     CG2R61     CG2R61
   13     8     9    56	 9 ;     CG2R61     CG2R61     CG2R61      HGR61
    8     9    10    11	 9 ;     CG2R61     CG2R61     CG2R61     CG2R61
    8     9    10    14	 9 ;     CG2R61     CG2R61     CG2R61      CG302
   56     9    10    11	 9 ;      HGR61     CG2R61     CG2R61     CG2R61
   56     9    10    14	 9 ;      HGR61     CG2R61     CG2R61      CG302
    9    10    11    12	 9 ;     CG2R61     CG2R61     CG2R61     CG2R61
    9    10    11    57	 9 ;     CG2R61     CG2R61     CG2R61      HGR61
   14    10    11    12	 9 ;      CG302     CG2R61     CG2R61     CG2R61
   14    10    11    57	 9 ;      CG302     CG2R61     CG2R61      HGR61
    9    10    14    17	 9 ;     CG2R61     CG2R61      CG302       FGA3
    9    10    14    16	 9 ;     CG2R61     CG2R61      CG302       FGA3
    9    10    14    15	 9 ;     CG2R61     CG2R61      CG302       FGA3
   11    10    14    17	 9 ;     CG2R61     CG2R61      CG302       FGA3
   11    10    14    16	 9 ;     CG2R61     CG2R61      CG302       FGA3
   11    10    14    15	 9 ;     CG2R61     CG2R61      CG302       FGA3
   10    11    12    13	 9 ;     CG2R61     CG2R61     CG2R61     CG2R61
   10    11    12    58	 9 ;     CG2R61     CG2R61     CG2R61      HGR61
   57    11    12    13	 9 ;      HGR61     CG2R61     CG2R61     CG2R61
   57    11    12    58	 9 ;      HGR61     CG2R61     CG2R61      HGR61
   11    12    13     8	 9 ;     CG2R61     CG2R61     CG2R61     CG2R61
   11    12    13    59	 9 ;     CG2R61     CG2R61     CG2R61      HGR61
   58    12    13     8	 9 ;      HGR61     CG2R61     CG2R61     CG2R61
   58    12    13    59	 9 ;      HGR61     CG2R61     CG2R61      HGR61
    1    20    21    22	 9 ;      CG311      NG2S1      CG2O1      OG2D1
    1    20    21    24	 9 ;      CG311      NG2S1      CG2O1     CG2DC1
   23    20    21    22	 9 ;       HGP1      NG2S1      CG2O1      OG2D1
   23    20    21    24	 9 ;       HGP1      NG2S1      CG2O1     CG2DC1
   20    21    24    34	 9 ;      NG2S1      CG2O1     CG2DC1      CG321
   20    21    24    25	 9 ;      NG2S1      CG2O1     CG2DC1     CG2DC1
   22    21    24    34	 9 ;      OG2D1      CG2O1     CG2DC1      CG321
   22    21    24    25	 9 ;      OG2D1      CG2O1     CG2DC1     CG2DC1
   21    24    34    29	 9 ;      CG2O1     CG2DC1      CG321     CG2R61
   21    24    34    63	 9 ;      CG2O1     CG2DC1      CG321       HGA2
   21    24    34    82	 9 ;      CG2O1     CG2DC1      CG321       HGA2
   25    24    34    29	 9 ;     CG2DC1     CG2DC1      CG321     CG2R61
   25    24    34    63	 9 ;     CG2DC1     CG2DC1      CG321       HGA2
   25    24    34    82	 9 ;     CG2DC1     CG2DC1      CG321       HGA2
   21    24    25    26	 9 ;      CG2O1     CG2DC1     CG2DC1     CG2D2O
   21    24    25    60	 9 ;      CG2O1     CG2DC1     CG2DC1       HGA4
   34    24    25    26	 9 ;      CG321     CG2DC1     CG2DC1     CG2D2O
   34    24    25    60	 9 ;      CG321     CG2DC1     CG2DC1       HGA4
   24    25    26    27	 9 ;     CG2DC1     CG2DC1     CG2D2O     CG2R61
   24    25    26    35	 9 ;     CG2DC1     CG2DC1     CG2D2O     NG2R53
   60    25    26    27	 9 ;       HGA4     CG2DC1     CG2D2O     CG2R61
   60    25    26    35	 9 ;       HGA4     CG2DC1     CG2D2O     NG2R53
   25    26    27    29	 9 ;     CG2DC1     CG2D2O     CG2R61     CG2R61
   25    26    27    28	 9 ;     CG2DC1     CG2D2O     CG2R61     NG2R61
   35    26    27    29	 9 ;     NG2R53     CG2D2O     CG2R61     CG2R61
   35    26    27    28	 9 ;     NG2R53     CG2D2O     CG2R61     NG2R61
   25    26    35    36	 9 ;     CG2DC1     CG2D2O     NG2R53     CG3C52
   25    26    35    39	 9 ;     CG2DC1     CG2D2O     NG2R53     CG2R53
   27    26    35    36	 9 ;     CG2R61     CG2D2O     NG2R53     CG3C52
   27    26    35    39	 9 ;     CG2R61     CG2D2O     NG2R53     CG2R53
   26    27    29    34	 9 ;     CG2D2O     CG2R61     CG2R61      CG321
   26    27    29    33	 9 ;     CG2D2O     CG2R61     CG2R61     CG2R61
   28    27    29    34	 9 ;     NG2R61     CG2R61     CG2R61      CG321
   28    27    29    33	 9 ;     NG2R61     CG2R61     CG2R61     CG2R61
   29    27    28    31	 9 ;     CG2R61     CG2R61     NG2R61       HGP1
   29    27    28    30	 9 ;     CG2R61     CG2R61     NG2R61     CG2R61
   26    27    28    31	 9 ;     CG2D2O     CG2R61     NG2R61       HGP1
   26    27    28    30	 9 ;     CG2D2O     CG2R61     NG2R61     CG2R61
   27    28    30    32	 9 ;     CG2R61     NG2R61     CG2R61     CG2R61
   27    28    30    61	 9 ;     CG2R61     NG2R61     CG2R61      HGR62
   31    28    30    32	 9 ;       HGP1     NG2R61     CG2R61     CG2R61
   31    28    30    61	 9 ;       HGP1     NG2R61     CG2R61      HGR62
   27    29    34    24	 9 ;     CG2R61     CG2R61      CG321     CG2DC1
   27    29    34    63	 9 ;     CG2R61     CG2R61      CG321       HGA2
   27    29    34    82	 9 ;     CG2R61     CG2R61      CG321       HGA2
   33    29    34    24	 9 ;     CG2R61     CG2R61      CG321     CG2DC1
   33    29    34    63	 9 ;     CG2R61     CG2R61      CG321       HGA2
   33    29    34    82	 9 ;     CG2R61     CG2R61      CG321       HGA2
   34    29    33    41	 9 ;      CG321     CG2R61     CG2R61      CG321
   34    29    33    32	 9 ;      CG321     CG2R61     CG2R61     CG2R61
   27    29    33    41	 9 ;     CG2R61     CG2R61     CG2R61      CG321
   27    29    33    32	 9 ;     CG2R61     CG2R61     CG2R61     CG2R61
   28    30    32    33	 9 ;     NG2R61     CG2R61     CG2R61     CG2R61
   28    30    32    62	 9 ;     NG2R61     CG2R61     CG2R61      HGR61
   61    30    32    33	 9 ;      HGR62     CG2R61     CG2R61     CG2R61
   61    30    32    62	 9 ;      HGR62     CG2R61     CG2R61      HGR61
   30    32    33    29	 9 ;     CG2R61     CG2R61     CG2R61     CG2R61
   30    32    33    41	 9 ;     CG2R61     CG2R61     CG2R61      CG321
   62    32    33    29	 9 ;      HGR61     CG2R61     CG2R61     CG2R61
   62    32    33    41	 9 ;      HGR61     CG2R61     CG2R61      CG321
   29    33    41    42	 9 ;     CG2R61     CG2R61      CG321      CG331
   29    33    41    70	 9 ;     CG2R61     CG2R61      CG321       HGA2
   29    33    41    71	 9 ;     CG2R61     CG2R61      CG321       HGA2
   32    33    41    42	 9 ;     CG2R61     CG2R61      CG321      CG331
   32    33    41    70	 9 ;     CG2R61     CG2R61      CG321       HGA2
   32    33    41    71	 9 ;     CG2R61     CG2R61      CG321       HGA2
   26    35    36    37	 9 ;     CG2D2O     NG2R53     CG3C52     CG3C52
   26    35    36    64	 9 ;     CG2D2O     NG2R53     CG3C52       HGA2
   26    35    36    65	 9 ;     CG2D2O     NG2R53     CG3C52       HGA2
   39    35    36    37	 9 ;     CG2R53     NG2R53     CG3C52     CG3C52
   39    35    36    64	 9 ;     CG2R53     NG2R53     CG3C52       HGA2
   39    35    36    65	 9 ;     CG2R53     NG2R53     CG3C52       HGA2
   26    35    39    40	 9 ;     CG2D2O     NG2R53     CG2R53      OG2D1
   26    35    39    38	 9 ;     CG2D2O     NG2R53     CG2R53     CG3C52
   36    35    39    40	 9 ;     CG3C52     NG2R53     CG2R53      OG2D1
   36    35    39    38	 9 ;     CG3C52     NG2R53     CG2R53     CG3C52
   35    36    37    38	 9 ;     NG2R53     CG3C52     CG3C52     CG3C52
   35    36    37    66	 9 ;     NG2R53     CG3C52     CG3C52       HGA2
   35    36    37    67	 9 ;     NG2R53     CG3C52     CG3C52       HGA2
   64    36    37    38	 9 ;       HGA2     CG3C52     CG3C52     CG3C52
   64    36    37    66	 9 ;       HGA2     CG3C52     CG3C52       HGA2
   64    36    37    67	 9 ;       HGA2     CG3C52     CG3C52       HGA2
   65    36    37    38	 9 ;       HGA2     CG3C52     CG3C52     CG3C52
   65    36    37    66	 9 ;       HGA2     CG3C52     CG3C52       HGA2
   65    36    37    67	 9 ;       HGA2     CG3C52     CG3C52       HGA2
   36    37    38    39	 9 ;     CG3C52     CG3C52     CG3C52     CG2R53
   36    37    38    68	 9 ;     CG3C52     CG3C52     CG3C52       HGA2
   36    37    38    69	 9 ;     CG3C52     CG3C52     CG3C52       HGA2
   66    37    38    39	 9 ;       HGA2     CG3C52     CG3C52     CG2R53
   66    37    38    68	 9 ;       HGA2     CG3C52     CG3C52       HGA2
   66    37    38    69	 9 ;       HGA2     CG3C52     CG3C52       HGA2
   67    37    38    39	 9 ;       HGA2     CG3C52     CG3C52     CG2R53
   67    37    38    68	 9 ;       HGA2     CG3C52     CG3C52       HGA2
   67    37    38    69	 9 ;       HGA2     CG3C52     CG3C52       HGA2
   37    38    39    35	 9 ;     CG3C52     CG3C52     CG2R53     NG2R53
   37    38    39    40	 9 ;     CG3C52     CG3C52     CG2R53      OG2D1
   68    38    39    35	 9 ;       HGA2     CG3C52     CG2R53     NG2R53
   68    38    39    40	 9 ;       HGA2     CG3C52     CG2R53      OG2D1
   69    38    39    35	 9 ;       HGA2     CG3C52     CG2R53     NG2R53
   69    38    39    40	 9 ;       HGA2     CG3C52     CG2R53      OG2D1
   33    41    42    72	 9 ;     CG2R61      CG321      CG331       HGA3
   33    41    42    73	 9 ;     CG2R61      CG321      CG331       HGA3
   33    41    42    74	 9 ;     CG2R61      CG321      CG331       HGA3
   70    41    42    72	 9 ;       HGA2      CG321      CG331       HGA3
   70    41    42    73	 9 ;       HGA2      CG321      CG331       HGA3
   70    41    42    74	 9 ;       HGA2      CG321      CG331       HGA3
   71    41    42    72	 9 ;       HGA2      CG321      CG331       HGA3
   71    41    42    73	 9 ;       HGA2      CG321      CG331       HGA3
   71    41    42    74	 9 ;       HGA2      CG321      CG331       HGA3
    1    43    44    45	 9 ;      CG311      CG321     CG2R61     CG2R61
    1    43    44    49	 9 ;      CG311      CG321     CG2R61     CG2R61
   75    43    44    45	 9 ;       HGA2      CG321     CG2R61     CG2R61
   75    43    44    49	 9 ;       HGA2      CG321     CG2R61     CG2R61
   76    43    44    45	 9 ;       HGA2      CG321     CG2R61     CG2R61
   76    43    44    49	 9 ;       HGA2      CG321     CG2R61     CG2R61
   43    44    45    46	 9 ;      CG321     CG2R61     CG2R61     CG2R61
   43    44    45    77	 9 ;      CG321     CG2R61     CG2R61      HGR61
   49    44    45    46	 9 ;     CG2R61     CG2R61     CG2R61     CG2R61
   49    44    45    77	 9 ;     CG2R61     CG2R61     CG2R61      HGR61
   43    44    49    48	 9 ;      CG321     CG2R61     CG2R61     CG2R61
   43    44    49    81	 9 ;      CG321     CG2R61     CG2R61      HGR61
   45    44    49    48	 9 ;     CG2R61     CG2R61     CG2R61     CG2R61
   45    44    49    81	 9 ;     CG2R61     CG2R61     CG2R61      HGR61
   44    45    46    47	 9 ;     CG2R61     CG2R61     CG2R61     CG2R61
   44    45    46    78	 9 ;     CG2R61     CG2R61     CG2R61      HGR61
   77    45    46    47	 9 ;      HGR61     CG2R61     CG2R61     CG2R61
   77    45    46    78	 9 ;      HGR61     CG2R61     CG2R61      HGR61
   45    46    47    48	 9 ;     CG2R61     CG2R61     CG2R61     CG2R61
   45    46    47    79	 9 ;     CG2R61     CG2R61     CG2R61      HGR61
   78    46    47    48	 9 ;      HGR61     CG2R61     CG2R61     CG2R61
   78    46    47    79	 9 ;      HGR61     CG2R61     CG2R61      HGR61
   46    47    48    49	 9 ;     CG2R61     CG2R61     CG2R61     CG2R61
   46    47    48    80	 9 ;     CG2R61     CG2R61     CG2R61      HGR61
   79    47    48    49	 9 ;      HGR61     CG2R61     CG2R61     CG2R61
   79    47    48    80	 9 ;      HGR61     CG2R61     CG2R61      HGR61
   47    48    49    44	 9 ;     CG2R61     CG2R61     CG2R61     CG2R61
   47    48    49    81	 9 ;     CG2R61     CG2R61     CG2R61      HGR61
   80    48    49    44	 9 ;      HGR61     CG2R61     CG2R61     CG2R61
   80    48    49    81	 9 ;      HGR61     CG2R61     CG2R61      HGR61

[ dihedrals ]
;	ai	  aj	ak	  al funct			  c0			c1			  c2			c3
   21    24    20    22	 2
   26    25    27    35	 2
   39    38    35    40	 2

