Gromacs Runs One Microsecond At Cannonball Speeds
   41
    1LIG     C1    1  -1.472   0.275  -1.558
    1LIG     C2    2  -1.575   0.362  -1.514
    1LIG     C3    3  -1.698   0.379  -1.583
    1LIG     C4    4  -1.717   0.303  -1.699
    1LIG     C5    5  -1.619   0.215  -1.744
    1LIG     C6    6  -1.497   0.202  -1.675
    1LIG     C7    7  -1.801   0.480  -1.530
    1LIG      O    8  -1.915   0.492  -1.615
    1LIG     C8    9  -1.921   0.603  -1.702
    1LIG     C9   10  -1.857   0.730  -1.654
    1LIG    C10   11  -1.758   0.713  -1.543
    1LIG     N1   12  -1.731   0.601  -1.487
    1LIG     HN   13  -1.662   0.597  -1.412
    1LIG    C11   14  -1.865   0.423  -1.402
    1LIG     N2   15  -1.692   0.824  -1.500
    1LIG     H1   16  -1.746   0.909  -1.510
    1LIG     H2   17  -1.639   0.818  -1.413
    1LIG    C12   18  -1.342   0.265  -1.485
    1LIG    C13   19  -1.263   0.149  -1.489
    1LIG    C14   20  -1.140   0.143  -1.421
    1LIG     CL   21  -1.046  -0.001  -1.429
    1LIG    C15   22  -1.095   0.250  -1.346
    1LIG    C16   23  -1.172   0.367  -1.340
    1LIG    C17   24  -1.293   0.374  -1.410
    1LIG     HC   25  -1.559   0.418  -1.423
    1LIG    HC1   26  -1.810   0.312  -1.754
    1LIG    HC2   27  -1.636   0.156  -1.833
    1LIG    HC3   28  -1.422   0.135  -1.713
    1LIG    HC4   29  -2.026   0.624  -1.721
    1LIG    HC5   30  -1.875   0.575  -1.796
    1LIG    HC6   31  -1.935   0.797  -1.619
    1LIG    HC7   32  -1.806   0.777  -1.739
    1LIG    HC8   33  -1.919   0.331  -1.426
    1LIG    HC9   34  -1.934   0.496  -1.359
    1LIG   HC10   35  -1.787   0.400  -1.329
    1LIG   HC11   36  -1.296   0.064  -1.546
    1LIG   HC12   37  -1.001   0.244  -1.293
    1LIG   HC13   38  -1.138   0.451  -1.282
    1LIG   HC14   39  -1.350   0.466  -1.407
    1LIG    H19   40  -1.679   0.694  -1.616
    1LIG    LP1   41  -0.956  -0.138  -1.437
   0.00000   0.00000   0.00000
