Good ROcking Metal Altar for Chronical Sinners
   68
    1LIG     C1    1  -1.397   0.363  -1.697
    1LIG     O1    2  -1.478   0.245  -1.681
    1LIG     H1    3  -1.484   0.226  -1.585
    1LIG     C2    4  -1.494   0.482  -1.706
    1LIG     N1    5  -1.598   0.461  -1.597
    1LIG     H2    6  -1.553   0.491  -1.510
    1LIG     H3    7  -1.610   0.359  -1.584
    1LIG     C3    8  -1.737   0.520  -1.611
    1LIG     C4    9  -1.809   0.439  -1.723
    1LIG     C5   10  -1.837   0.293  -1.688
    1LIG     C6   11  -1.913   0.281  -1.556
    1LIG     C7   12  -1.843   0.356  -1.443
    1LIG     C8   13  -1.816   0.500  -1.479
    1LIG     C9   14  -1.732   0.668  -1.651
    1LIG    C10   15  -1.705   0.780  -1.574
    1LIG    C11   16  -1.740   0.903  -1.638
    1LIG    C12   17  -1.785   0.880  -1.767
    1LIG      S   18  -1.772   0.716  -1.812
    1LIG    C13   19  -1.731   1.039  -1.574
    1LIG    C14   20  -1.650   1.139  -1.655
    1LIG    C15   21  -1.282   0.370  -1.591
    1LIG    C16   22  -1.179   0.258  -1.619
    1LIG    C17   23  -1.168   0.141  -1.525
    1LIG    C18   24  -1.245   0.025  -1.545
    1LIG    C19   25  -1.212  -0.092  -1.479
    1LIG     F1   26  -1.282  -0.204  -1.506
    1LIG    C20   27  -1.105  -0.099  -1.391
    1LIG    C21   28  -1.034   0.017  -1.365
    1LIG     F2   29  -0.929   0.013  -1.281
    1LIG    C22   30  -1.065   0.136  -1.429
    1LIG     N2   31  -1.234   0.507  -1.571
    1LIG    C23   32  -1.202   0.567  -1.451
    1LIG     O2   33  -1.205   0.509  -1.343
    1LIG    C24   34  -1.155   0.710  -1.468
    1LIG     H4   35  -1.232   0.566  -1.653
    1LIG     HC   36  -1.349   0.354  -1.794
    1LIG    HC2   37  -1.542   0.485  -1.804
    1LIG    HC3   38  -1.440   0.576  -1.688
    1LIG    HC4   39  -1.748   0.442  -1.813
    1LIG    HC5   40  -1.905   0.488  -1.745
    1LIG    HC6   41  -1.895   0.247  -1.767
    1LIG    HC7   42  -1.742   0.240  -1.679
    1LIG    HC8   43  -1.920   0.175  -1.530
    1LIG    HC9   44  -2.013   0.321  -1.570
    1LIG   HC10   45  -1.907   0.353  -1.355
    1LIG   HC11   46  -1.749   0.306  -1.420
    1LIG   HC12   47  -1.758   0.545  -1.398
    1LIG   HC13   48  -1.911   0.553  -1.487
    1LIG    HC1   49  -1.661   0.774  -1.476
    1LIG   HC14   50  -1.823   0.957  -1.832
    1LIG   HC15   51  -1.684   1.027  -1.476
    1LIG   HC16   52  -1.832   1.078  -1.560
    1LIG   HC17   53  -1.648   1.235  -1.602
    1LIG   HC18   54  -1.548   1.102  -1.667
    1LIG   HC19   55  -1.696   1.153  -1.753
    1LIG   HC20   56  -1.329   0.342  -1.497
    1LIG   HC21   57  -1.081   0.305  -1.621
    1LIG   HC22   58  -1.199   0.218  -1.719
    1LIG   HC23   59  -1.329   0.028  -1.612
    1LIG   HC24   60  -1.078  -0.192  -1.344
    1LIG   HC25   61  -1.010   0.226  -1.406
    1LIG   HC26   62  -1.132   0.752  -1.370
    1LIG   HC27   63  -1.235   0.769  -1.515
    1LIG   HC28   64  -1.066   0.712  -1.531
    1LIG    H34   65  -1.627   0.659  -1.679
    1LIG    H35   66  -1.804   0.774  -1.531
    1LIG    H36   67  -1.638   0.914  -1.675
    1LIG    H37   68  -1.885   0.862  -1.729
   0.00000   0.00000   0.00000
