Gallium Rubidium Oxygen Manganese Argon Carbon Silicon
   58
    1LIG     C1    1  -1.326   0.381  -1.751
    1LIG     N1    2  -1.436   0.303  -1.818
    1LIG     C2    3  -1.474   0.367  -1.931
    1LIG     N2    4  -1.398   0.472  -1.959
    1LIG     C3    5  -1.289   0.474  -1.868
    1LIG     N3    6  -1.189   0.554  -1.870
    1LIG    HN1    7  -1.107   0.540  -1.812
    1LIG     C4    8  -1.201   0.669  -1.961
    1LIG     C5    9  -1.348   0.709  -1.975
    1LIG     C6   10  -1.425   0.592  -2.037
    1LIG     H1   11  -1.478   0.219  -1.782
    1LIG     C7   12  -1.394   0.469  -1.644
    1LIG     C8   13  -1.440   0.417  -1.522
    1LIG     C9   14  -1.531   0.487  -1.441
    1LIG    C10   15  -1.577   0.612  -1.487
    1LIG    C11   16  -1.523   0.671  -1.601
    1LIG    C12   17  -1.429   0.602  -1.675
    1LIG    C13   18  -1.577   0.435  -1.310
    1LIG    C14   19  -1.685   0.347  -1.301
    1LIG    C15   20  -1.732   0.302  -1.178
    1LIG    C16   21  -1.669   0.347  -1.064
    1LIG     N4   22  -1.563   0.431  -1.066
    1LIG    C17   23  -1.520   0.472  -1.187
    1LIG    HN2   24  -1.518   0.462  -0.980
    1LIG      F   25  -1.412   0.553  -1.186
    1LIG    C18   26  -1.213   0.291  -1.709
    1LIG    C19   27  -1.194   0.169  -1.774
    1LIG    C20   28  -1.107   0.080  -1.717
    1LIG     O1   29  -1.096  -0.051  -1.751
    1LIG    C21   30  -1.032   0.112  -1.606
    1LIG    C22   31  -1.043  -0.100  -1.626
    1LIG     O2   32  -0.970   0.003  -1.555
    1LIG    C23   33  -1.033   0.238  -1.551
    1LIG    C24   34  -1.127   0.328  -1.602
    1LIG     N5   35  -1.578   0.324  -2.004
    1LIG     H2   36  -1.616   0.379  -2.080
    1LIG     H3   37  -1.626   0.239  -1.979
    1LIG     H4   38  -1.548   0.366  -2.009
    1LIG     H5   39  -1.191   0.470  -1.911
    1LIG     H6   40  -1.146   0.751  -1.921
    1LIG     H7   41  -1.163   0.641  -2.056
    1LIG     H8   42  -1.389   0.732  -1.879
    1LIG     H9   43  -1.356   0.795  -2.038
    1LIG    H10   44  -1.394   0.577  -2.138
    1LIG    H11   45  -1.530   0.613  -2.036
    1LIG    H12   46  -1.405   0.325  -1.490
    1LIG    H13   47  -1.652   0.660  -1.436
    1LIG    H14   48  -1.553   0.765  -1.630
    1LIG    H15   49  -1.382   0.649  -1.754
    1LIG    H16   50  -1.731   0.314  -1.388
    1LIG    H17   51  -1.812   0.236  -1.172
    1LIG    H18   52  -1.636   0.260  -1.012
    1LIG    H19   53  -1.745   0.410  -1.022
    1LIG    H20   54  -1.244   0.146  -1.862
    1LIG    H21   55  -0.977  -0.181  -1.646
    1LIG    H22   56  -1.125  -0.130  -1.564
    1LIG    H23   57  -0.968   0.265  -1.475
    1LIG    H24   58  -1.133   0.423  -1.563
   0.00000   0.00000   0.00000
