GRoups of Organic Molecules in ACtion for Science
   63
    1LIG     C1    1  -1.583   0.504  -1.363
    1LIG     C2    2  -1.474   0.419  -1.380
    1LIG     C3    3  -1.443   0.371  -1.508
    1LIG     C4    4  -1.333   0.285  -1.530
    1LIG     C5    5  -1.304   0.237  -1.656
    1LIG     C6    6  -1.390   0.277  -1.758
    1LIG     C7    7  -1.495   0.364  -1.740
    1LIG     C8    8  -1.525   0.412  -1.615
    1LIG     N1    9  -1.630   0.492  -1.599
    1LIG     HN   10  -1.688   0.519  -1.679
    1LIG     C9   11  -1.659   0.537  -1.475
    1LIG    C10   12  -1.609   0.566  -1.228
    1LIG    C11   13  -1.518   0.509  -1.119
    1LIG    C12   14  -1.596   0.462  -0.997
    1LIG      O   15  -1.673   0.532  -0.936
    1LIG     N2   16  -1.573   0.330  -0.959
    1LIG     H1   17  -1.524   0.272  -1.024
    1LIG    C13   18  -1.638   0.265  -0.845
    1LIG    C14   19  -1.581   0.124  -0.819
    1LIG    C15   20  -1.692   0.025  -0.781
    1LIG    C16   21  -1.637  -0.112  -0.744
    1LIG    C17   22  -1.534  -0.101  -0.632
    1LIG    C18   23  -1.421  -0.006  -0.670
    1LIG    C19   24  -1.475   0.132  -0.708
    1LIG     N3   25  -1.776   0.613  -1.464
    1LIG     H2   26  -1.816   0.594  -1.373
    1LIG     H3   27  -1.841   0.598  -1.539
    1LIG    C20   28  -1.188   0.147  -1.680
    1LIG    C21   29  -1.206   0.007  -1.671
    1LIG    C22   30  -1.101  -0.081  -1.692
    1LIG    C23   31  -0.975  -0.032  -1.725
    1LIG    C24   32  -0.954   0.105  -1.734
    1LIG    C25   33  -1.059   0.196  -1.712
    1LIG    C26   34  -1.027   0.343  -1.717
    1LIG     H4   35  -1.416   0.391  -1.299
    1LIG     H5   36  -1.274   0.258  -1.450
    1LIG     H6   37  -1.374   0.239  -1.853
    1LIG     H7   38  -1.551   0.395  -1.821
    1LIG     H8   39  -1.548   0.478  -1.534
    1LIG     H9   40  -1.711   0.547  -1.201
    1LIG    H10   41  -1.589   0.671  -1.236
    1LIG    H11   42  -1.449   0.586  -1.089
    1LIG    H12   43  -1.466   0.425  -1.160
    1LIG    H13   44  -1.743   0.257  -0.866
    1LIG    H14   45  -1.621   0.325  -0.758
    1LIG    H15   46  -1.535   0.089  -0.909
    1LIG    H16   47  -1.758   0.014  -0.865
    1LIG    H17   48  -1.743   0.064  -0.696
    1LIG    H18   49  -1.591  -0.155  -0.830
    1LIG    H19   50  -1.718  -0.173  -0.710
    1LIG    H20   51  -1.493  -0.198  -0.614
    1LIG    H21   52  -1.583  -0.064  -0.545
    1LIG    H22   53  -1.355   0.004  -0.587
    1LIG    H23   54  -1.370  -0.046  -0.755
    1LIG    H24   55  -1.520   0.176  -0.621
    1LIG    H25   56  -1.393   0.190  -0.744
    1LIG    H26   57  -1.300  -0.030  -1.647
    1LIG    H27   58  -1.117  -0.183  -1.684
    1LIG    H28   59  -0.897  -0.098  -1.742
    1LIG    H29   60  -0.861   0.141  -1.758
    1LIG    H30   61  -0.924   0.356  -1.742
    1LIG    H31   62  -1.047   0.387  -1.622
    1LIG    H32   63  -1.089   0.389  -1.791
   0.00000   0.00000   0.00000
