; Created by cgenff_charmm2gmx.py

[ moleculetype ]
; Name			   nrexcl
LIG				 3

[ atoms ]
;	 nr		  type	resnr residue  atom   cgnr	   charge		mass  typeB    chargeB		massB
; residue	 1 LIG rtp LIG q	qsum
     1     CG2DC1      1    LIG     C1      1     -0.152     12.011   ;
     2     CG2DC2      1    LIG     C2      2     -0.265     12.011   ;
     3     CG2DC2      1    LIG     C3      3      0.147     12.011   ;
     4     CG2DC1      1    LIG     C4      4     -0.139     12.011   ;
     5     CG2DC1      1    LIG     C5      5      0.124     12.011   ;
     6     CG2DC2      1    LIG     C6      6     -0.282     12.011   ;
     7     CG2DC2      1    LIG     C7      7     -0.253     12.011   ;
     8      CG311      1    LIG     C8      8      0.369     12.011   ;
     9      NG311      1    LIG     N1      9     -0.634     14.007   ;
    10     HGPAM1      1    LIG     HN     10      0.328      1.008   ;
    11     CG2D1O      1    LIG     C9     11      0.146     12.011   ;
    12      CG321      1    LIG    C10     12     -0.069     12.011   ;
    13      CG321      1    LIG    C11     13     -0.232     12.011   ;
    14      CG2O1      1    LIG    C12     14      0.488     12.011   ;
    15      OG2D1      1    LIG      O     15     -0.521     15.999   ;
    16      NG2S1      1    LIG     N2     16     -0.486     14.007   ;
    17       HGP1      1    LIG     H1     17      0.322      1.008   ;
    18      CG321      1    LIG    C13     18      0.016     12.011   ;
    19      CG311      1    LIG    C14     19     -0.117     12.011   ;
    20      CG321      1    LIG    C15     20     -0.173     12.011   ;
    21      CG321      1    LIG    C16     21     -0.192     12.011   ;
    22      CG321      1    LIG    C17     22     -0.154     12.011   ;
    23      CG321      1    LIG    C18     23     -0.192     12.011   ;
    24      CG321      1    LIG    C19     24     -0.173     12.011   ;
    25      NG321      1    LIG     N3     25     -0.754     14.007   ;
    26     HGPAM2      1    LIG     H2     26      0.404      1.008   ;
    27     HGPAM2      1    LIG     H3     27      0.404      1.008   ;
    28     CG2R61      1    LIG    C20     28     -0.151     12.011   ;
    29     CG2R61      1    LIG    C21     29     -0.132     12.011   ;
    30     CG2R61      1    LIG    C22     30     -0.113     12.011   ;
    31     CG2R61      1    LIG    C23     31     -0.131     12.011   ;
    32     CG2R61      1    LIG    C24     32     -0.118     12.011   ;
    33     CG2R61      1    LIG    C25     33      0.056     12.011   ;
    34      CG331      1    LIG    C26     34     -0.279     12.011   ;
    35       HGA4      1    LIG     H4     35      0.150      1.008   ;
    36       HGA4      1    LIG     H5     36      0.117      1.008   ;
    37       HGA4      1    LIG     H6     37      0.153      1.008   ;
    38       HGA4      1    LIG     H7     38      0.134      1.008   ;
    39       HGA1      1    LIG     H8     39      0.090      1.008   ;
    40       HGA2      1    LIG     H9     40      0.090      1.008   ;
    41       HGA2      1    LIG    H10     41      0.090      1.008   ;
    42       HGA2      1    LIG    H11     42      0.090      1.008   ;
    43       HGA2      1    LIG    H12     43      0.090      1.008   ;
    44       HGA2      1    LIG    H13     44      0.090      1.008   ;
    45       HGA2      1    LIG    H14     45      0.090      1.008   ;
    46       HGA1      1    LIG    H15     46      0.090      1.008   ;
    47       HGA2      1    LIG    H16     47      0.090      1.008   ;
    48       HGA2      1    LIG    H17     48      0.090      1.008   ;
    49       HGA2      1    LIG    H18     49      0.090      1.008   ;
    50       HGA2      1    LIG    H19     50      0.090      1.008   ;
    51       HGA2      1    LIG    H20     51      0.090      1.008   ;
    52       HGA2      1    LIG    H21     52      0.090      1.008   ;
    53       HGA2      1    LIG    H22     53      0.090      1.008   ;
    54       HGA2      1    LIG    H23     54      0.090      1.008   ;
    55       HGA2      1    LIG    H24     55      0.090      1.008   ;
    56       HGA2      1    LIG    H25     56      0.090      1.008   ;
    57      HGR61      1    LIG    H26     57      0.116      1.008   ;
    58      HGR61      1    LIG    H27     58      0.116      1.008   ;
    59      HGR61      1    LIG    H28     59      0.116      1.008   ;
    60      HGR61      1    LIG    H29     60      0.116      1.008   ;
    61       HGA3      1    LIG    H30     61      0.090      1.008   ;
    62       HGA3      1    LIG    H31     62      0.090      1.008   ;
    63       HGA3      1    LIG    H32     63      0.090      1.008   ;

[ bonds ]
;	ai	  aj funct			  c0			c1			  c2			c3
    1    11	 1 ;      CG2DC1     CG2D1O
    1     2	 1 ;      CG2DC1     CG2DC2
    1    12	 1 ;      CG2DC1      CG321
    2     3	 1 ;      CG2DC2     CG2DC2
    2    35	 1 ;      CG2DC2       HGA4
    3     8	 1 ;      CG2DC2      CG311
    3     4	 1 ;      CG2DC2     CG2DC1
    4     5	 1 ;      CG2DC1     CG2DC1
    4    36	 1 ;      CG2DC1       HGA4
    5     6	 1 ;      CG2DC1     CG2DC2
    5    28	 1 ;      CG2DC1     CG2R61
    6     7	 1 ;      CG2DC2     CG2DC2
    6    37	 1 ;      CG2DC2       HGA4
    7     8	 1 ;      CG2DC2      CG311
    7    38	 1 ;      CG2DC2       HGA4
    8     9	 1 ;       CG311      NG311
    8    39	 1 ;       CG311       HGA1
    9    10	 1 ;       NG311     HGPAM1
    9    11	 1 ;       NG311     CG2D1O
   11    25	 1 ;      CG2D1O      NG321
   12    13	 1 ;       CG321      CG321
   12    40	 1 ;       CG321       HGA2
   12    41	 1 ;       CG321       HGA2
   13    14	 1 ;       CG321      CG2O1
   13    42	 1 ;       CG321       HGA2
   13    43	 1 ;       CG321       HGA2
   14    16	 1 ;       CG2O1      NG2S1
   14    15	 1 ;       CG2O1      OG2D1
   16    17	 1 ;       NG2S1       HGP1
   16    18	 1 ;       NG2S1      CG321
   18    19	 1 ;       CG321      CG311
   18    44	 1 ;       CG321       HGA2
   18    45	 1 ;       CG321       HGA2
   19    20	 1 ;       CG311      CG321
   19    24	 1 ;       CG311      CG321
   19    46	 1 ;       CG311       HGA1
   20    21	 1 ;       CG321      CG321
   20    47	 1 ;       CG321       HGA2
   20    48	 1 ;       CG321       HGA2
   21    22	 1 ;       CG321      CG321
   21    49	 1 ;       CG321       HGA2
   21    50	 1 ;       CG321       HGA2
   22    23	 1 ;       CG321      CG321
   22    51	 1 ;       CG321       HGA2
   22    52	 1 ;       CG321       HGA2
   23    24	 1 ;       CG321      CG321
   23    53	 1 ;       CG321       HGA2
   23    54	 1 ;       CG321       HGA2
   24    55	 1 ;       CG321       HGA2
   24    56	 1 ;       CG321       HGA2
   25    27	 1 ;       NG321     HGPAM2
   25    26	 1 ;       NG321     HGPAM2
   28    33	 1 ;      CG2R61     CG2R61
   28    29	 1 ;      CG2R61     CG2R61
   29    30	 1 ;      CG2R61     CG2R61
   29    57	 1 ;      CG2R61      HGR61
   30    31	 1 ;      CG2R61     CG2R61
   30    58	 1 ;      CG2R61      HGR61
   31    32	 1 ;      CG2R61     CG2R61
   31    59	 1 ;      CG2R61      HGR61
   32    33	 1 ;      CG2R61     CG2R61
   32    60	 1 ;      CG2R61      HGR61
   33    34	 1 ;      CG2R61      CG331
   34    61	 1 ;       CG331       HGA3
   34    62	 1 ;       CG331       HGA3
   34    63	 1 ;       CG331       HGA3

[ pairs ]
;	ai	  aj funct			  c0			c1			  c2			c3
    1     8	 1
    1     4	 1
    1    10	 1
    1    27	 1
    1    26	 1
    1    14	 1
    1    42	 1
    1    43	 1
    2     9	 1
    2    25	 1
    2    13	 1
    2    40	 1
    2    41	 1
    2     7	 1
    2    39	 1
    2     5	 1
    2    36	 1
    3    11	 1
    3    12	 1
    3     6	 1
    3    28	 1
    3    38	 1
    3    10	 1
    4    35	 1
    4     7	 1
    4     9	 1
    4    39	 1
    4    37	 1
    4    33	 1
    4    29	 1
    5     8	 1
    5    38	 1
    5    32	 1
    5    34	 1
    5    30	 1
    5    57	 1
    6    36	 1
    6    33	 1
    6    29	 1
    6     9	 1
    6    39	 1
    7    28	 1
    7    10	 1
    7    11	 1
    8    35	 1
    8    36	 1
    8    37	 1
    8    25	 1
    9    12	 1
    9    38	 1
    9    27	 1
    9    26	 1
   10    39	 1
   10    25	 1
   11    35	 1
   11    13	 1
   11    40	 1
   11    41	 1
   11    39	 1
   12    25	 1
   12    35	 1
   12    16	 1
   12    15	 1
   13    17	 1
   13    18	 1
   14    40	 1
   14    41	 1
   14    19	 1
   14    44	 1
   14    45	 1
   15    42	 1
   15    43	 1
   15    17	 1
   15    18	 1
   16    42	 1
   16    43	 1
   16    20	 1
   16    24	 1
   16    46	 1
   17    19	 1
   17    44	 1
   17    45	 1
   18    21	 1
   18    47	 1
   18    48	 1
   18    23	 1
   18    55	 1
   18    56	 1
   19    22	 1
   19    49	 1
   19    50	 1
   19    53	 1
   19    54	 1
   20    44	 1
   20    45	 1
   20    23	 1
   20    55	 1
   20    56	 1
   20    51	 1
   20    52	 1
   21    24	 1
   21    46	 1
   21    53	 1
   21    54	 1
   22    47	 1
   22    48	 1
   22    55	 1
   22    56	 1
   23    46	 1
   23    49	 1
   23    50	 1
   24    44	 1
   24    45	 1
   24    47	 1
   24    48	 1
   24    51	 1
   24    52	 1
   28    36	 1
   28    37	 1
   28    31	 1
   28    58	 1
   28    60	 1
   28    61	 1
   28    62	 1
   28    63	 1
   29    32	 1
   29    34	 1
   29    59	 1
   30    33	 1
   30    60	 1
   31    57	 1
   31    34	 1
   32    58	 1
   32    61	 1
   32    62	 1
   32    63	 1
   33    57	 1
   33    59	 1
   34    60	 1
   37    38	 1
   38    39	 1
   40    42	 1
   40    43	 1
   41    42	 1
   41    43	 1
   44    46	 1
   45    46	 1
   46    47	 1
   46    48	 1
   46    55	 1
   46    56	 1
   47    49	 1
   47    50	 1
   48    49	 1
   48    50	 1
   49    51	 1
   49    52	 1
   50    51	 1
   50    52	 1
   51    53	 1
   51    54	 1
   52    53	 1
   52    54	 1
   53    55	 1
   53    56	 1
   54    55	 1
   54    56	 1
   57    58	 1
   58    59	 1
   59    60	 1

[ angles ]
;	ai	  aj	ak funct			c0			  c1			c2			  c3
   11     1     2	5 ;     CG2D1O     CG2DC1     CG2DC2
   11     1    12	5 ;     CG2D1O     CG2DC1      CG321
    2     1    12	5 ;     CG2DC2     CG2DC1      CG321
    3     2     1	5 ;     CG2DC2     CG2DC2     CG2DC1
    3     2    35	5 ;     CG2DC2     CG2DC2       HGA4
    1     2    35	5 ;     CG2DC1     CG2DC2       HGA4
    8     3     4	5 ;      CG311     CG2DC2     CG2DC1
    8     3     2	5 ;      CG311     CG2DC2     CG2DC2
    4     3     2	5 ;     CG2DC1     CG2DC2     CG2DC2
    5     4     3	5 ;     CG2DC1     CG2DC1     CG2DC2
    5     4    36	5 ;     CG2DC1     CG2DC1       HGA4
    3     4    36	5 ;     CG2DC2     CG2DC1       HGA4
    6     5    28	5 ;     CG2DC2     CG2DC1     CG2R61
    6     5     4	5 ;     CG2DC2     CG2DC1     CG2DC1
   28     5     4	5 ;     CG2R61     CG2DC1     CG2DC1
    7     6     5	5 ;     CG2DC2     CG2DC2     CG2DC1
    7     6    37	5 ;     CG2DC2     CG2DC2       HGA4
    5     6    37	5 ;     CG2DC1     CG2DC2       HGA4
    6     7     8	5 ;     CG2DC2     CG2DC2      CG311
    6     7    38	5 ;     CG2DC2     CG2DC2       HGA4
    8     7    38	5 ;      CG311     CG2DC2       HGA4
    7     8     9	5 ;     CG2DC2      CG311      NG311
    7     8     3	5 ;     CG2DC2      CG311     CG2DC2
    7     8    39	5 ;     CG2DC2      CG311       HGA1
    9     8     3	5 ;      NG311      CG311     CG2DC2
    9     8    39	5 ;      NG311      CG311       HGA1
    3     8    39	5 ;     CG2DC2      CG311       HGA1
   10     9     8	5 ;     HGPAM1      NG311      CG311
   10     9    11	5 ;     HGPAM1      NG311     CG2D1O
    8     9    11	5 ;      CG311      NG311     CG2D1O
    9    11    25	5 ;      NG311     CG2D1O      NG321
    9    11     1	5 ;      NG311     CG2D1O     CG2DC1
   25    11     1	5 ;      NG321     CG2D1O     CG2DC1
    1    12    13	5 ;     CG2DC1      CG321      CG321
    1    12    40	5 ;     CG2DC1      CG321       HGA2
    1    12    41	5 ;     CG2DC1      CG321       HGA2
   13    12    40	5 ;      CG321      CG321       HGA2
   13    12    41	5 ;      CG321      CG321       HGA2
   40    12    41	5 ;       HGA2      CG321       HGA2
   12    13    14	5 ;      CG321      CG321      CG2O1
   12    13    42	5 ;      CG321      CG321       HGA2
   12    13    43	5 ;      CG321      CG321       HGA2
   14    13    42	5 ;      CG2O1      CG321       HGA2
   14    13    43	5 ;      CG2O1      CG321       HGA2
   42    13    43	5 ;       HGA2      CG321       HGA2
   13    14    16	5 ;      CG321      CG2O1      NG2S1
   13    14    15	5 ;      CG321      CG2O1      OG2D1
   16    14    15	5 ;      NG2S1      CG2O1      OG2D1
   17    16    14	5 ;       HGP1      NG2S1      CG2O1
   17    16    18	5 ;       HGP1      NG2S1      CG321
   14    16    18	5 ;      CG2O1      NG2S1      CG321
   16    18    19	5 ;      NG2S1      CG321      CG311
   16    18    44	5 ;      NG2S1      CG321       HGA2
   16    18    45	5 ;      NG2S1      CG321       HGA2
   19    18    44	5 ;      CG311      CG321       HGA2
   19    18    45	5 ;      CG311      CG321       HGA2
   44    18    45	5 ;       HGA2      CG321       HGA2
   18    19    20	5 ;      CG321      CG311      CG321
   18    19    24	5 ;      CG321      CG311      CG321
   18    19    46	5 ;      CG321      CG311       HGA1
   20    19    24	5 ;      CG321      CG311      CG321
   20    19    46	5 ;      CG321      CG311       HGA1
   24    19    46	5 ;      CG321      CG311       HGA1
   19    20    21	5 ;      CG311      CG321      CG321
   19    20    47	5 ;      CG311      CG321       HGA2
   19    20    48	5 ;      CG311      CG321       HGA2
   21    20    47	5 ;      CG321      CG321       HGA2
   21    20    48	5 ;      CG321      CG321       HGA2
   47    20    48	5 ;       HGA2      CG321       HGA2
   20    21    22	5 ;      CG321      CG321      CG321
   20    21    49	5 ;      CG321      CG321       HGA2
   20    21    50	5 ;      CG321      CG321       HGA2
   22    21    49	5 ;      CG321      CG321       HGA2
   22    21    50	5 ;      CG321      CG321       HGA2
   49    21    50	5 ;       HGA2      CG321       HGA2
   21    22    23	5 ;      CG321      CG321      CG321
   21    22    51	5 ;      CG321      CG321       HGA2
   21    22    52	5 ;      CG321      CG321       HGA2
   23    22    51	5 ;      CG321      CG321       HGA2
   23    22    52	5 ;      CG321      CG321       HGA2
   51    22    52	5 ;       HGA2      CG321       HGA2
   24    23    22	5 ;      CG321      CG321      CG321
   24    23    53	5 ;      CG321      CG321       HGA2
   24    23    54	5 ;      CG321      CG321       HGA2
   22    23    53	5 ;      CG321      CG321       HGA2
   22    23    54	5 ;      CG321      CG321       HGA2
   53    23    54	5 ;       HGA2      CG321       HGA2
   19    24    23	5 ;      CG311      CG321      CG321
   19    24    55	5 ;      CG311      CG321       HGA2
   19    24    56	5 ;      CG311      CG321       HGA2
   23    24    55	5 ;      CG321      CG321       HGA2
   23    24    56	5 ;      CG321      CG321       HGA2
   55    24    56	5 ;       HGA2      CG321       HGA2
   27    25    11	5 ;     HGPAM2      NG321     CG2D1O
   27    25    26	5 ;     HGPAM2      NG321     HGPAM2
   11    25    26	5 ;     CG2D1O      NG321     HGPAM2
   33    28    29	5 ;     CG2R61     CG2R61     CG2R61
   33    28     5	5 ;     CG2R61     CG2R61     CG2DC1
   29    28     5	5 ;     CG2R61     CG2R61     CG2DC1
   30    29    28	5 ;     CG2R61     CG2R61     CG2R61
   30    29    57	5 ;     CG2R61     CG2R61      HGR61
   28    29    57	5 ;     CG2R61     CG2R61      HGR61
   31    30    29	5 ;     CG2R61     CG2R61     CG2R61
   31    30    58	5 ;     CG2R61     CG2R61      HGR61
   29    30    58	5 ;     CG2R61     CG2R61      HGR61
   32    31    30	5 ;     CG2R61     CG2R61     CG2R61
   32    31    59	5 ;     CG2R61     CG2R61      HGR61
   30    31    59	5 ;     CG2R61     CG2R61      HGR61
   31    32    33	5 ;     CG2R61     CG2R61     CG2R61
   31    32    60	5 ;     CG2R61     CG2R61      HGR61
   33    32    60	5 ;     CG2R61     CG2R61      HGR61
   32    33    34	5 ;     CG2R61     CG2R61      CG331
   32    33    28	5 ;     CG2R61     CG2R61     CG2R61
   34    33    28	5 ;      CG331     CG2R61     CG2R61
   33    34    61	5 ;     CG2R61      CG331       HGA3
   33    34    62	5 ;     CG2R61      CG331       HGA3
   33    34    63	5 ;     CG2R61      CG331       HGA3
   61    34    62	5 ;       HGA3      CG331       HGA3
   61    34    63	5 ;       HGA3      CG331       HGA3
   62    34    63	5 ;       HGA3      CG331       HGA3

[ dihedrals ]
;	ai	  aj	ak	  al funct			  c0			c1			  c2			c3			  c4			c5
    2     1    11     9	 9 ;     CG2DC2     CG2DC1     CG2D1O      NG311
    2     1    11    25	 9 ;     CG2DC2     CG2DC1     CG2D1O      NG321
   12     1    11     9	 9 ;      CG321     CG2DC1     CG2D1O      NG311
   12     1    11    25	 9 ;      CG321     CG2DC1     CG2D1O      NG321
   11     1     2     3	 9 ;     CG2D1O     CG2DC1     CG2DC2     CG2DC2
   11     1     2    35	 9 ;     CG2D1O     CG2DC1     CG2DC2       HGA4
   12     1     2     3	 9 ;      CG321     CG2DC1     CG2DC2     CG2DC2
   12     1     2    35	 9 ;      CG321     CG2DC1     CG2DC2       HGA4
   11     1    12    13	 9 ;     CG2D1O     CG2DC1      CG321      CG321
   11     1    12    40	 9 ;     CG2D1O     CG2DC1      CG321       HGA2
   11     1    12    41	 9 ;     CG2D1O     CG2DC1      CG321       HGA2
    2     1    12    13	 9 ;     CG2DC2     CG2DC1      CG321      CG321
    2     1    12    40	 9 ;     CG2DC2     CG2DC1      CG321       HGA2
    2     1    12    41	 9 ;     CG2DC2     CG2DC1      CG321       HGA2
    1     2     3     8	 9 ;     CG2DC1     CG2DC2     CG2DC2      CG311
    1     2     3     4	 9 ;     CG2DC1     CG2DC2     CG2DC2     CG2DC1
   35     2     3     8	 9 ;       HGA4     CG2DC2     CG2DC2      CG311
   35     2     3     4	 9 ;       HGA4     CG2DC2     CG2DC2     CG2DC1
    4     3     8     7	 9 ;     CG2DC1     CG2DC2      CG311     CG2DC2
    4     3     8     9	 9 ;     CG2DC1     CG2DC2      CG311      NG311
    4     3     8    39	 9 ;     CG2DC1     CG2DC2      CG311       HGA1
    2     3     8     7	 9 ;     CG2DC2     CG2DC2      CG311     CG2DC2
    2     3     8     9	 9 ;     CG2DC2     CG2DC2      CG311      NG311
    2     3     8    39	 9 ;     CG2DC2     CG2DC2      CG311       HGA1
    8     3     4     5	 9 ;      CG311     CG2DC2     CG2DC1     CG2DC1
    8     3     4    36	 9 ;      CG311     CG2DC2     CG2DC1       HGA4
    2     3     4     5	 9 ;     CG2DC2     CG2DC2     CG2DC1     CG2DC1
    2     3     4    36	 9 ;     CG2DC2     CG2DC2     CG2DC1       HGA4
    3     4     5     6	 9 ;     CG2DC2     CG2DC1     CG2DC1     CG2DC2
    3     4     5    28	 9 ;     CG2DC2     CG2DC1     CG2DC1     CG2R61
   36     4     5     6	 9 ;       HGA4     CG2DC1     CG2DC1     CG2DC2
   36     4     5    28	 9 ;       HGA4     CG2DC1     CG2DC1     CG2R61
   28     5     6     7	 9 ;     CG2R61     CG2DC1     CG2DC2     CG2DC2
   28     5     6    37	 9 ;     CG2R61     CG2DC1     CG2DC2       HGA4
    4     5     6     7	 9 ;     CG2DC1     CG2DC1     CG2DC2     CG2DC2
    4     5     6    37	 9 ;     CG2DC1     CG2DC1     CG2DC2       HGA4
    6     5    28    33	 9 ;     CG2DC2     CG2DC1     CG2R61     CG2R61
    6     5    28    29	 9 ;     CG2DC2     CG2DC1     CG2R61     CG2R61
    4     5    28    33	 9 ;     CG2DC1     CG2DC1     CG2R61     CG2R61
    4     5    28    29	 9 ;     CG2DC1     CG2DC1     CG2R61     CG2R61
    5     6     7     8	 9 ;     CG2DC1     CG2DC2     CG2DC2      CG311
    5     6     7    38	 9 ;     CG2DC1     CG2DC2     CG2DC2       HGA4
   37     6     7     8	 9 ;       HGA4     CG2DC2     CG2DC2      CG311
   37     6     7    38	 9 ;       HGA4     CG2DC2     CG2DC2       HGA4
    6     7     8     9	 9 ;     CG2DC2     CG2DC2      CG311      NG311
    6     7     8     3	 9 ;     CG2DC2     CG2DC2      CG311     CG2DC2
    6     7     8    39	 9 ;     CG2DC2     CG2DC2      CG311       HGA1
   38     7     8     9	 9 ;       HGA4     CG2DC2      CG311      NG311
   38     7     8     3	 9 ;       HGA4     CG2DC2      CG311     CG2DC2
   38     7     8    39	 9 ;       HGA4     CG2DC2      CG311       HGA1
    7     8     9    10	 9 ;     CG2DC2      CG311      NG311     HGPAM1
    7     8     9    11	 9 ;     CG2DC2      CG311      NG311     CG2D1O
    3     8     9    10	 9 ;     CG2DC2      CG311      NG311     HGPAM1
    3     8     9    11	 9 ;     CG2DC2      CG311      NG311     CG2D1O
   39     8     9    10	 9 ;       HGA1      CG311      NG311     HGPAM1
   39     8     9    11	 9 ;       HGA1      CG311      NG311     CG2D1O
   10     9    11    25	 9 ;     HGPAM1      NG311     CG2D1O      NG321
   10     9    11     1	 9 ;     HGPAM1      NG311     CG2D1O     CG2DC1
    8     9    11    25	 9 ;      CG311      NG311     CG2D1O      NG321
    8     9    11     1	 9 ;      CG311      NG311     CG2D1O     CG2DC1
    9    11    25    27	 9 ;      NG311     CG2D1O      NG321     HGPAM2
    9    11    25    26	 9 ;      NG311     CG2D1O      NG321     HGPAM2
    1    11    25    27	 9 ;     CG2DC1     CG2D1O      NG321     HGPAM2
    1    11    25    26	 9 ;     CG2DC1     CG2D1O      NG321     HGPAM2
    1    12    13    14	 9 ;     CG2DC1      CG321      CG321      CG2O1
    1    12    13    42	 9 ;     CG2DC1      CG321      CG321       HGA2
    1    12    13    43	 9 ;     CG2DC1      CG321      CG321       HGA2
   40    12    13    14	 9 ;       HGA2      CG321      CG321      CG2O1
   40    12    13    42	 9 ;       HGA2      CG321      CG321       HGA2
   40    12    13    43	 9 ;       HGA2      CG321      CG321       HGA2
   41    12    13    14	 9 ;       HGA2      CG321      CG321      CG2O1
   41    12    13    42	 9 ;       HGA2      CG321      CG321       HGA2
   41    12    13    43	 9 ;       HGA2      CG321      CG321       HGA2
   12    13    14    16	 9 ;      CG321      CG321      CG2O1      NG2S1
   12    13    14    15	 9 ;      CG321      CG321      CG2O1      OG2D1
   42    13    14    16	 9 ;       HGA2      CG321      CG2O1      NG2S1
   42    13    14    15	 9 ;       HGA2      CG321      CG2O1      OG2D1
   43    13    14    16	 9 ;       HGA2      CG321      CG2O1      NG2S1
   43    13    14    15	 9 ;       HGA2      CG321      CG2O1      OG2D1
   13    14    16    17	 9 ;      CG321      CG2O1      NG2S1       HGP1
   13    14    16    18	 9 ;      CG321      CG2O1      NG2S1      CG321
   15    14    16    17	 9 ;      OG2D1      CG2O1      NG2S1       HGP1
   15    14    16    18	 9 ;      OG2D1      CG2O1      NG2S1      CG321
   17    16    18    19	 9 ;       HGP1      NG2S1      CG321      CG311
   17    16    18    44	 9 ;       HGP1      NG2S1      CG321       HGA2
   17    16    18    45	 9 ;       HGP1      NG2S1      CG321       HGA2
   14    16    18    19	 9 ;      CG2O1      NG2S1      CG321      CG311
   14    16    18    44	 9 ;      CG2O1      NG2S1      CG321       HGA2
   14    16    18    45	 9 ;      CG2O1      NG2S1      CG321       HGA2
   16    18    19    20	 9 ;      NG2S1      CG321      CG311      CG321
   16    18    19    24	 9 ;      NG2S1      CG321      CG311      CG321
   16    18    19    46	 9 ;      NG2S1      CG321      CG311       HGA1
   44    18    19    20	 9 ;       HGA2      CG321      CG311      CG321
   44    18    19    24	 9 ;       HGA2      CG321      CG311      CG321
   44    18    19    46	 9 ;       HGA2      CG321      CG311       HGA1
   45    18    19    20	 9 ;       HGA2      CG321      CG311      CG321
   45    18    19    24	 9 ;       HGA2      CG321      CG311      CG321
   45    18    19    46	 9 ;       HGA2      CG321      CG311       HGA1
   18    19    20    21	 9 ;      CG321      CG311      CG321      CG321
   18    19    20    47	 9 ;      CG321      CG311      CG321       HGA2
   18    19    20    48	 9 ;      CG321      CG311      CG321       HGA2
   24    19    20    21	 9 ;      CG321      CG311      CG321      CG321
   24    19    20    47	 9 ;      CG321      CG311      CG321       HGA2
   24    19    20    48	 9 ;      CG321      CG311      CG321       HGA2
   46    19    20    21	 9 ;       HGA1      CG311      CG321      CG321
   46    19    20    47	 9 ;       HGA1      CG311      CG321       HGA2
   46    19    20    48	 9 ;       HGA1      CG311      CG321       HGA2
   18    19    24    23	 9 ;      CG321      CG311      CG321      CG321
   18    19    24    55	 9 ;      CG321      CG311      CG321       HGA2
   18    19    24    56	 9 ;      CG321      CG311      CG321       HGA2
   20    19    24    23	 9 ;      CG321      CG311      CG321      CG321
   20    19    24    55	 9 ;      CG321      CG311      CG321       HGA2
   20    19    24    56	 9 ;      CG321      CG311      CG321       HGA2
   46    19    24    23	 9 ;       HGA1      CG311      CG321      CG321
   46    19    24    55	 9 ;       HGA1      CG311      CG321       HGA2
   46    19    24    56	 9 ;       HGA1      CG311      CG321       HGA2
   19    20    21    22	 9 ;      CG311      CG321      CG321      CG321
   19    20    21    49	 9 ;      CG311      CG321      CG321       HGA2
   19    20    21    50	 9 ;      CG311      CG321      CG321       HGA2
   47    20    21    22	 9 ;       HGA2      CG321      CG321      CG321
   47    20    21    49	 9 ;       HGA2      CG321      CG321       HGA2
   47    20    21    50	 9 ;       HGA2      CG321      CG321       HGA2
   48    20    21    22	 9 ;       HGA2      CG321      CG321      CG321
   48    20    21    49	 9 ;       HGA2      CG321      CG321       HGA2
   48    20    21    50	 9 ;       HGA2      CG321      CG321       HGA2
   20    21    22    23	 9 ;      CG321      CG321      CG321      CG321
   20    21    22    51	 9 ;      CG321      CG321      CG321       HGA2
   20    21    22    52	 9 ;      CG321      CG321      CG321       HGA2
   49    21    22    23	 9 ;       HGA2      CG321      CG321      CG321
   49    21    22    51	 9 ;       HGA2      CG321      CG321       HGA2
   49    21    22    52	 9 ;       HGA2      CG321      CG321       HGA2
   50    21    22    23	 9 ;       HGA2      CG321      CG321      CG321
   50    21    22    51	 9 ;       HGA2      CG321      CG321       HGA2
   50    21    22    52	 9 ;       HGA2      CG321      CG321       HGA2
   21    22    23    24	 9 ;      CG321      CG321      CG321      CG321
   21    22    23    53	 9 ;      CG321      CG321      CG321       HGA2
   21    22    23    54	 9 ;      CG321      CG321      CG321       HGA2
   51    22    23    24	 9 ;       HGA2      CG321      CG321      CG321
   51    22    23    53	 9 ;       HGA2      CG321      CG321       HGA2
   51    22    23    54	 9 ;       HGA2      CG321      CG321       HGA2
   52    22    23    24	 9 ;       HGA2      CG321      CG321      CG321
   52    22    23    53	 9 ;       HGA2      CG321      CG321       HGA2
   52    22    23    54	 9 ;       HGA2      CG321      CG321       HGA2
   22    23    24    19	 9 ;      CG321      CG321      CG321      CG311
   22    23    24    55	 9 ;      CG321      CG321      CG321       HGA2
   22    23    24    56	 9 ;      CG321      CG321      CG321       HGA2
   53    23    24    19	 9 ;       HGA2      CG321      CG321      CG311
   53    23    24    55	 9 ;       HGA2      CG321      CG321       HGA2
   53    23    24    56	 9 ;       HGA2      CG321      CG321       HGA2
   54    23    24    19	 9 ;       HGA2      CG321      CG321      CG311
   54    23    24    55	 9 ;       HGA2      CG321      CG321       HGA2
   54    23    24    56	 9 ;       HGA2      CG321      CG321       HGA2
   29    28    33    32	 9 ;     CG2R61     CG2R61     CG2R61     CG2R61
   29    28    33    34	 9 ;     CG2R61     CG2R61     CG2R61      CG331
    5    28    33    32	 9 ;     CG2DC1     CG2R61     CG2R61     CG2R61
    5    28    33    34	 9 ;     CG2DC1     CG2R61     CG2R61      CG331
   33    28    29    30	 9 ;     CG2R61     CG2R61     CG2R61     CG2R61
   33    28    29    57	 9 ;     CG2R61     CG2R61     CG2R61      HGR61
    5    28    29    30	 9 ;     CG2DC1     CG2R61     CG2R61     CG2R61
    5    28    29    57	 9 ;     CG2DC1     CG2R61     CG2R61      HGR61
   28    29    30    31	 9 ;     CG2R61     CG2R61     CG2R61     CG2R61
   28    29    30    58	 9 ;     CG2R61     CG2R61     CG2R61      HGR61
   57    29    30    31	 9 ;      HGR61     CG2R61     CG2R61     CG2R61
   57    29    30    58	 9 ;      HGR61     CG2R61     CG2R61      HGR61
   29    30    31    32	 9 ;     CG2R61     CG2R61     CG2R61     CG2R61
   29    30    31    59	 9 ;     CG2R61     CG2R61     CG2R61      HGR61
   58    30    31    32	 9 ;      HGR61     CG2R61     CG2R61     CG2R61
   58    30    31    59	 9 ;      HGR61     CG2R61     CG2R61      HGR61
   30    31    32    33	 9 ;     CG2R61     CG2R61     CG2R61     CG2R61
   30    31    32    60	 9 ;     CG2R61     CG2R61     CG2R61      HGR61
   59    31    32    33	 9 ;      HGR61     CG2R61     CG2R61     CG2R61
   59    31    32    60	 9 ;      HGR61     CG2R61     CG2R61      HGR61
   31    32    33    34	 9 ;     CG2R61     CG2R61     CG2R61      CG331
   31    32    33    28	 9 ;     CG2R61     CG2R61     CG2R61     CG2R61
   60    32    33    34	 9 ;      HGR61     CG2R61     CG2R61      CG331
   60    32    33    28	 9 ;      HGR61     CG2R61     CG2R61     CG2R61
   32    33    34    61	 9 ;     CG2R61     CG2R61      CG331       HGA3
   32    33    34    62	 9 ;     CG2R61     CG2R61      CG331       HGA3
   32    33    34    63	 9 ;     CG2R61     CG2R61      CG331       HGA3
   28    33    34    61	 9 ;     CG2R61     CG2R61      CG331       HGA3
   28    33    34    62	 9 ;     CG2R61     CG2R61      CG331       HGA3
   28    33    34    63	 9 ;     CG2R61     CG2R61      CG331       HGA3

[ dihedrals ]
;	ai	  aj	ak	  al funct			  c0			c1			  c2			c3
   11     1     9    25	 2
   14    13    16    15	 2

