GROwing Monsters And Cloning Shrimps
   62
    1LIG     C1    1  -1.450   0.425  -1.714
    1LIG     N1    2  -1.577   0.354  -1.765
    1LIG     C2    3  -1.621   0.407  -1.882
    1LIG     N2    4  -1.541   0.498  -1.926
    1LIG     C3    5  -1.515   0.558  -2.055
    1LIG     C4    6  -1.362   0.542  -2.059
    1LIG     N3    7  -1.319   0.554  -1.911
    1LIG    HN1    8  -1.232   0.590  -1.872
    1LIG     C5    9  -1.424   0.505  -1.849
    1LIG     C6   10  -1.303   0.640  -2.159
    1LIG     C7   11  -1.321   0.398  -2.101
    1LIG     H1   12  -1.624   0.279  -1.716
    1LIG     C8   13  -1.503   0.500  -1.592
    1LIG     C9   14  -1.542   0.435  -1.474
    1LIG    C10   15  -1.577   0.507  -1.357
    1LIG    C11   16  -1.577   0.647  -1.365
    1LIG    C12   17  -1.546   0.714  -1.482
    1LIG    C13   18  -1.511   0.641  -1.595
    1LIG    C14   19  -1.613   0.438  -1.230
    1LIG    C15   20  -1.733   0.366  -1.217
    1LIG    C16   21  -1.764   0.302  -1.097
    1LIG    C17   22  -1.674   0.310  -0.993
    1LIG     N4   23  -1.558   0.378  -0.999
    1LIG    C18   24  -1.531   0.440  -1.117
    1LIG    HN2   25  -1.494   0.383  -0.920
    1LIG     F1   26  -1.417   0.511  -1.119
    1LIG    C19   27  -1.342   0.320  -1.689
    1LIG    C20   28  -1.323   0.214  -1.779
    1LIG    C21   29  -1.214   0.128  -1.768
    1LIG    C22   30  -1.120   0.146  -1.667
    1LIG    C23   31  -1.144   0.243  -1.570
    1LIG    C24   32  -1.253   0.331  -1.581
    1LIG      O   33  -1.007   0.072  -1.651
    1LIG    C25   34  -1.016  -0.070  -1.649
    1LIG     F2   35  -1.135  -0.117  -1.606
    1LIG     F3   36  -0.996  -0.116  -1.774
    1LIG     F4   37  -0.919  -0.119  -1.569
    1LIG     N5   38  -1.728   0.362  -1.948
    1LIG     H2   39  -1.776   0.417  -2.017
    1LIG     H3   40  -1.763   0.269  -1.928
    1LIG     H4   41  -1.726   0.417  -1.900
    1LIG     H5   42  -1.563   0.504  -2.134
    1LIG     H6   43  -1.551   0.657  -2.067
    1LIG     H7   44  -1.358   0.567  -1.791
    1LIG     H8   45  -1.343   0.619  -2.257
    1LIG     H9   46  -1.197   0.629  -2.161
    1LIG    H10   47  -1.329   0.740  -2.131
    1LIG    H11   48  -1.348   0.382  -2.203
    1LIG    H12   49  -1.371   0.327  -2.039
    1LIG    H13   50  -1.215   0.387  -2.089
    1LIG    H14   51  -1.544   0.332  -1.471
    1LIG    H15   52  -1.601   0.702  -1.281
    1LIG    H16   53  -1.550   0.817  -1.486
    1LIG    H17   54  -1.489   0.691  -1.683
    1LIG    H18   55  -1.798   0.361  -1.296
    1LIG    H19   56  -1.853   0.250  -1.087
    1LIG    H20   57  -1.647   0.209  -0.969
    1LIG    H21   58  -1.729   0.369  -0.922
    1LIG    H22   59  -1.391   0.200  -1.855
    1LIG    H23   60  -1.203   0.050  -1.835
    1LIG    H24   61  -1.080   0.251  -1.489
    1LIG    H25   62  -1.267   0.404  -1.510
   0.00000   0.00000   0.00000
