Gyas ROwers Mature At Cryogenic Speed
   57
    1LIG     C1    1  -1.376   0.730  -1.594
    1LIG     N1    2  -1.393   0.590  -1.601
    1LIG     C2    3  -1.281   0.525  -1.546
    1LIG     C3    4  -1.195   0.624  -1.503
    1LIG     C4    5  -1.255   0.749  -1.529
    1LIG     C5    6  -1.500   0.521  -1.674
    1LIG     C6    7  -1.631   0.507  -1.597
    1LIG     N2    8  -1.729   0.601  -1.611
    1LIG     C7    9  -1.848   0.580  -1.554
    1LIG     HN   10  -1.711   0.686  -1.664
    1LIG     C8   11  -1.877   0.465  -1.481
    1LIG     C9   12  -1.776   0.372  -1.461
    1LIG    C10   13  -1.651   0.393  -1.519
    1LIG     N3   14  -1.947   0.676  -1.576
    1LIG     H1   15  -2.014   0.635  -1.640
    1LIG     H2   16  -1.908   0.762  -1.611
    1LIG    C11   17  -1.470   0.837  -1.639
    1LIG    C12   18  -1.582   0.869  -1.560
    1LIG    C13   19  -1.667   0.976  -1.590
    1LIG    C14   20  -1.639   1.059  -1.698
    1LIG    C15   21  -1.529   1.031  -1.778
    1LIG    C16   22  -1.447   0.919  -1.752
    1LIG     CL   23  -1.322   0.889  -1.868
    1LIG    C17   24  -1.257   0.380  -1.541
    1LIG    C18   25  -1.171   0.320  -1.635
    1LIG    C19   26  -1.151   0.181  -1.637
    1LIG    C20   27  -1.217   0.100  -1.547
    1LIG    C21   28  -1.300   0.158  -1.451
    1LIG    C22   29  -1.315   0.297  -1.445
    1LIG      O   30  -1.216  -0.037  -1.546
    1LIG    C23   31  -1.170  -0.100  -1.426
    1LIG    C24   32  -1.018  -0.091  -1.420
    1LIG    C25   33  -0.967  -0.002  -1.308
    1LIG     HC   34  -1.099   0.609  -1.458
    1LIG    HC1   35  -1.212   0.845  -1.503
    1LIG    HC2   36  -1.521   0.577  -1.765
    1LIG    HC3   37  -1.465   0.422  -1.701
    1LIG    HC4   38  -1.975   0.449  -1.441
    1LIG    HC5   39  -1.794   0.284  -1.402
    1LIG    HC6   40  -1.571   0.323  -1.503
    1LIG    HC7   41  -1.604   0.809  -1.473
    1LIG    HC8   42  -1.755   0.994  -1.530
    1LIG    HC9   43  -1.701   1.145  -1.719
    1LIG   HC10   44  -1.506   1.095  -1.862
    1LIG   HC11   45  -1.120   0.382  -1.707
    1LIG   HC12   46  -1.083   0.138  -1.709
    1LIG   HC13   47  -1.352   0.095  -1.380
    1LIG   HC14   48  -1.373   0.341  -1.365
    1LIG   HC15   49  -1.201  -0.205  -1.426
    1LIG   HC16   50  -1.213  -0.049  -1.340
    1LIG   HC17   51  -0.978  -0.191  -1.405
    1LIG   HC18   52  -0.981  -0.052  -1.515
    1LIG   HC19   53  -0.858   0.000  -1.309
    1LIG   HC20   54  -1.005   0.100  -1.322
    1LIG   HC21   55  -1.002  -0.041  -1.212
    1LIG    H26   56  -1.589   0.560  -1.512
    1LIG    LP1   57  -1.204   0.862  -1.978
   0.00000   0.00000   0.00000
