; Created by cgenff_charmm2gmx.py

[ moleculetype ]
; Name			   nrexcl
LIG				 3

[ atoms ]
;	 nr		  type	resnr residue  atom   cgnr	   charge		mass  typeB    chargeB		massB
; residue	 1 LIG rtp LIG q	qsum
     1     CG2R61      1    LIG     C1      1      0.140     12.011   ;
     2     CG2R61      1    LIG     C2      2     -0.064     12.011   ;
     3     CG2R61      1    LIG     C3      3     -0.099     12.011   ;
     4     CG2R61      1    LIG     C4      4     -0.067     12.011   ;
     5     CG2R61      1    LIG     C5      5      0.011     12.011   ;
     6     CG2R61      1    LIG     C6      6     -0.127     12.011   ;
     7      CG321      1    LIG     C7      7     -0.166     12.011   ;
     8      CG321      1    LIG     C8      8     -0.182     12.011   ;
     9      CG321      1    LIG     C9      9     -0.202     12.011   ;
    10      CG311      1    LIG    C10     10      0.150     12.011   ;
    11     CG2R61      1    LIG    C11     11     -0.010     12.011   ;
    12     CG2R61      1    LIG    C12     12     -0.119     12.011   ;
    13     CG2R61      1    LIG    C13     13     -0.006     12.011   ;
    14      CG321      1    LIG    C14     14      0.063     12.011   ;
    15      OG301      1    LIG     O1     15     -0.393     15.999   ;
    16      CG321      1    LIG    C15     16      0.012     12.011   ;
    17      CG311      1    LIG    C16     17     -0.001     12.011   ;
    18      NG2S1      1    LIG     N1     18     -0.238     14.007   ;
    19      CG2O1      1    LIG    C17     19      0.302     12.011   ;
    20      OG2D1      1    LIG     O2     20     -0.463     15.999   ;
    21     CG2R61      1    LIG    C18     21     -0.123     12.011   ;
    22     CG2R61      1    LIG    C19     22     -0.110     12.011   ;
    23     CG2R61      1    LIG    C20     23     -0.112     12.011   ;
    24       HGP1      1    LIG     H1     24      0.262      1.008   ;
    25      CG311      1    LIG    C21     25      0.110     12.011   ;
    26      OG311      1    LIG     O3     26     -0.648     15.999   ;
    27       HGP1      1    LIG     H2     27      0.421      1.008   ;
    28      CG321      1    LIG    C22     28     -0.155     12.011   ;
    29      CG311      1    LIG    C23     29     -0.022     12.011   ;
    30      CG311      1    LIG    C24     30     -0.108     12.011   ;
    31      CG331      1    LIG    C25     31     -0.270     12.011   ;
    32      CG331      1    LIG    C26     32     -0.270     12.011   ;
    33      CG2O1      1    LIG    C27     33      0.506     12.011   ;
    34      OG2D1      1    LIG     O4     34     -0.513     15.999   ;
    35      NG2S1      1    LIG     N2     35     -0.494     14.007   ;
    36       HGP1      1    LIG     H3     36      0.310      1.008   ;
    37      CG321      1    LIG    C28     37     -0.007     12.011   ;
    38      CG311      1    LIG    C29     38     -0.133     12.011   ;
    39      CG331      1    LIG    C30     39     -0.258     12.011   ;
    40      CG331      1    LIG    C31     40     -0.258     12.011   ;
    41      NG301      1    LIG     N3     41     -0.228     14.007   ;
    42      CG331      1    LIG    C32     42     -0.103     12.011   ;
    43      SG3O2      1    LIG      S     43      0.397     32.060   ;
    44      OG2P1      1    LIG     O5     44     -0.388     15.999   ;
    45      OG2P1      1    LIG     O6     45     -0.388     15.999   ;
    46      CG331      1    LIG    C33     46      0.036     12.011   ;
    47      OG301      1    LIG     O7     47     -0.407     15.999   ;
    48      CG321      1    LIG    C34     48     -0.004     12.011   ;
    49      CG321      1    LIG    C35     49     -0.007     12.011   ;
    50      OG301      1    LIG     O8     50     -0.339     15.999   ;
    51      CG331      1    LIG    C36     51     -0.100     12.011   ;
    52      HGR61      1    LIG     HC     52      0.116      1.008   ;
    53      HGR61      1    LIG    HC1     53      0.116      1.008   ;
    54      HGR61      1    LIG    HC2     54      0.116      1.008   ;
    55       HGA2      1    LIG    HC3     55      0.090      1.008   ;
    56       HGA2      1    LIG    HC4     56      0.090      1.008   ;
    57       HGA2      1    LIG    HC5     57      0.090      1.008   ;
    58       HGA2      1    LIG    HC6     58      0.090      1.008   ;
    59       HGA2      1    LIG    HC7     59      0.090      1.008   ;
    60       HGA2      1    LIG    HC8     60      0.090      1.008   ;
    61       HGA1      1    LIG    HC9     61      0.090      1.008   ;
    62      HGR61      1    LIG   HC10     62      0.116      1.008   ;
    63       HGA2      1    LIG   HC11     63      0.090      1.008   ;
    64       HGA2      1    LIG   HC12     64      0.090      1.008   ;
    65       HGA2      1    LIG   HC13     65      0.090      1.008   ;
    66       HGA2      1    LIG   HC14     66      0.090      1.008   ;
    67       HGA1      1    LIG   HC15     67      0.090      1.008   ;
    68      HGR61      1    LIG   HC16     68      0.116      1.008   ;
    69      HGR61      1    LIG   HC17     69      0.116      1.008   ;
    70      HGR61      1    LIG   HC18     70      0.116      1.008   ;
    71       HGA1      1    LIG   HC19     71      0.090      1.008   ;
    72       HGA2      1    LIG   HC20     72      0.090      1.008   ;
    73       HGA2      1    LIG   HC21     73      0.090      1.008   ;
    74       HGA1      1    LIG   HC22     74      0.090      1.008   ;
    75       HGA3      1    LIG   HC23     75      0.090      1.008   ;
    76       HGA3      1    LIG   HC24     76      0.090      1.008   ;
    77       HGA3      1    LIG   HC25     77      0.090      1.008   ;
    78       HGA3      1    LIG   HC26     78      0.090      1.008   ;
    79       HGA3      1    LIG   HC27     79      0.090      1.008   ;
    80       HGA2      1    LIG   HC28     80      0.090      1.008   ;
    81       HGA2      1    LIG   HC29     81      0.090      1.008   ;
    82       HGA1      1    LIG   HC30     82      0.090      1.008   ;
    83       HGA3      1    LIG   HC31     83      0.090      1.008   ;
    84       HGA3      1    LIG   HC32     84      0.090      1.008   ;
    85       HGA3      1    LIG   HC33     85      0.090      1.008   ;
    86       HGA3      1    LIG   HC34     86      0.090      1.008   ;
    87       HGA3      1    LIG   HC35     87      0.090      1.008   ;
    88       HGA3      1    LIG   HC36     88      0.090      1.008   ;
    89       HGA3      1    LIG   HC37     89      0.090      1.008   ;
    90       HGA3      1    LIG   HC38     90      0.090      1.008   ;
    91       HGA3      1    LIG   HC39     91      0.090      1.008   ;
    92       HGA3      1    LIG   HC40     92      0.090      1.008   ;
    93       HGA3      1    LIG   HC41     93      0.090      1.008   ;
    94       HGA3      1    LIG   HC42     94      0.090      1.008   ;
    95       HGA2      1    LIG   HC43     95      0.090      1.008   ;
    96       HGA2      1    LIG   HC44     96      0.090      1.008   ;
    97       HGA2      1    LIG   HC45     97      0.090      1.008   ;
    98       HGA2      1    LIG   HC46     98      0.090      1.008   ;
    99       HGA3      1    LIG   HC47     99      0.090      1.008   ;
   100       HGA3      1    LIG   HC48    100      0.090      1.008   ;
   101       HGA3      1    LIG   HC49    101      0.090      1.008   ;
   102       HGA1      1    LIG    H54    102      0.090      1.008   ;
   103       HGA3      1    LIG    H55    103      0.090      1.008   ;

[ bonds ]
;	ai	  aj funct			  c0			c1			  c2			c3
    1    41	 1 ;      CG2R61      NG301
    1     2	 1 ;      CG2R61     CG2R61
    1     6	 1 ;      CG2R61     CG2R61
    2     3	 1 ;      CG2R61     CG2R61
    2    52	 1 ;      CG2R61      HGR61
    3    19	 1 ;      CG2R61      CG2O1
    3     4	 1 ;      CG2R61     CG2R61
    4     5	 1 ;      CG2R61     CG2R61
    4    53	 1 ;      CG2R61      HGR61
    5     6	 1 ;      CG2R61     CG2R61
    5     7	 1 ;      CG2R61      CG321
    6    54	 1 ;      CG2R61      HGR61
    7     8	 1 ;       CG321      CG321
    7    55	 1 ;       CG321       HGA2
    7    56	 1 ;       CG321       HGA2
    8     9	 1 ;       CG321      CG321
    8    57	 1 ;       CG321       HGA2
    8    58	 1 ;       CG321       HGA2
    9    10	 1 ;       CG321      CG311
    9    59	 1 ;       CG321       HGA2
    9    60	 1 ;       CG321       HGA2
   10    11	 1 ;       CG311     CG2R61
   10    47	 1 ;       CG311      OG301
   10    61	 1 ;       CG311       HGA1
   11    12	 1 ;      CG2R61     CG2R61
   11    23	 1 ;      CG2R61     CG2R61
   12    13	 1 ;      CG2R61     CG2R61
   12    62	 1 ;      CG2R61      HGR61
   13    14	 1 ;      CG2R61      CG321
   13    21	 1 ;      CG2R61     CG2R61
   14    15	 1 ;       CG321      OG301
   14    63	 1 ;       CG321       HGA2
   14    64	 1 ;       CG321       HGA2
   15    16	 1 ;       OG301      CG321
   16    17	 1 ;       CG321      CG311
   16    65	 1 ;       CG321       HGA2
   16    66	 1 ;       CG321       HGA2
   17    25	 1 ;       CG311      CG311
   17    18	 1 ;       CG311      NG2S1
   17    67	 1 ;       CG311       HGA1
   18    24	 1 ;       NG2S1       HGP1
   18    19	 1 ;       NG2S1      CG2O1
   19    20	 1 ;       CG2O1      OG2D1
   21    22	 1 ;      CG2R61     CG2R61
   21    68	 1 ;      CG2R61      HGR61
   22    23	 1 ;      CG2R61     CG2R61
   22    69	 1 ;      CG2R61      HGR61
   23    70	 1 ;      CG2R61      HGR61
   25    28	 1 ;       CG311      CG321
   25    26	 1 ;       CG311      OG311
   25    71	 1 ;       CG311       HGA1
   26    27	 1 ;       OG311       HGP1
   28    29	 1 ;       CG321      CG311
   28    72	 1 ;       CG321       HGA2
   28    73	 1 ;       CG321       HGA2
   29    30	 1 ;       CG311      CG311
   29    33	 1 ;       CG311      CG2O1
   29    74	 1 ;       CG311       HGA1
   30    31	 1 ;       CG311      CG331
   30    32	 1 ;       CG311      CG331
   30   102	 1 ;       CG311       HGA1
   31    75	 1 ;       CG331       HGA3
   31    76	 1 ;       CG331       HGA3
   31   103	 1 ;       CG331       HGA3
   32    77	 1 ;       CG331       HGA3
   32    78	 1 ;       CG331       HGA3
   32    79	 1 ;       CG331       HGA3
   33    34	 1 ;       CG2O1      OG2D1
   33    35	 1 ;       CG2O1      NG2S1
   35    36	 1 ;       NG2S1       HGP1
   35    37	 1 ;       NG2S1      CG321
   37    38	 1 ;       CG321      CG311
   37    80	 1 ;       CG321       HGA2
   37    81	 1 ;       CG321       HGA2
   38    39	 1 ;       CG311      CG331
   38    40	 1 ;       CG311      CG331
   38    82	 1 ;       CG311       HGA1
   39    83	 1 ;       CG331       HGA3
   39    84	 1 ;       CG331       HGA3
   39    85	 1 ;       CG331       HGA3
   40    86	 1 ;       CG331       HGA3
   40    87	 1 ;       CG331       HGA3
   40    88	 1 ;       CG331       HGA3
   41    43	 1 ;       NG301      SG3O2
   41    42	 1 ;       NG301      CG331
   42    89	 1 ;       CG331       HGA3
   42    90	 1 ;       CG331       HGA3
   42    91	 1 ;       CG331       HGA3
   43    45	 1 ;       SG3O2      OG2P1
   43    46	 1 ;       SG3O2      CG331
   43    44	 1 ;       SG3O2      OG2P1
   46    92	 1 ;       CG331       HGA3
   46    93	 1 ;       CG331       HGA3
   46    94	 1 ;       CG331       HGA3
   47    48	 1 ;       OG301      CG321
   48    49	 1 ;       CG321      CG321
   48    95	 1 ;       CG321       HGA2
   48    96	 1 ;       CG321       HGA2
   49    50	 1 ;       CG321      OG301
   49    97	 1 ;       CG321       HGA2
   49    98	 1 ;       CG321       HGA2
   50    51	 1 ;       OG301      CG331
   51    99	 1 ;       CG331       HGA3
   51   100	 1 ;       CG331       HGA3
   51   101	 1 ;       CG331       HGA3

[ pairs ]
;	ai	  aj funct			  c0			c1			  c2			c3
    1    19	 1
    1     4	 1
    1     7	 1
    1    45	 1
    1    46	 1
    1    44	 1
    1    89	 1
    1    90	 1
    1    91	 1
    2    43	 1
    2    42	 1
    2     5	 1
    2    54	 1
    2    18	 1
    2    20	 1
    2    53	 1
    3    41	 1
    3     6	 1
    3     7	 1
    3    17	 1
    3    24	 1
    4    52	 1
    4    18	 1
    4    20	 1
    4    54	 1
    4     8	 1
    4    55	 1
    4    56	 1
    5    41	 1
    5    19	 1
    5     9	 1
    5    57	 1
    5    58	 1
    6    43	 1
    6    42	 1
    6    52	 1
    6    53	 1
    6     8	 1
    6    55	 1
    6    56	 1
    7    53	 1
    7    54	 1
    7    10	 1
    7    59	 1
    7    60	 1
    8    11	 1
    8    47	 1
    8    61	 1
    9    55	 1
    9    56	 1
    9    12	 1
    9    23	 1
    9    48	 1
   10    57	 1
   10    58	 1
   10    13	 1
   10    62	 1
   10    22	 1
   10    70	 1
   10    49	 1
   10    95	 1
   10    96	 1
   11    59	 1
   11    60	 1
   11    48	 1
   11    14	 1
   11    21	 1
   11    69	 1
   12    47	 1
   12    61	 1
   12    22	 1
   12    70	 1
   12    15	 1
   12    63	 1
   12    64	 1
   12    68	 1
   13    23	 1
   13    16	 1
   13    69	 1
   14    62	 1
   14    22	 1
   14    68	 1
   14    17	 1
   14    65	 1
   14    66	 1
   15    21	 1
   15    25	 1
   15    18	 1
   15    67	 1
   16    63	 1
   16    64	 1
   16    28	 1
   16    26	 1
   16    71	 1
   16    24	 1
   16    19	 1
   17    20	 1
   17    29	 1
   17    72	 1
   17    73	 1
   17    27	 1
   18    65	 1
   18    66	 1
   18    28	 1
   18    26	 1
   18    71	 1
   19    52	 1
   19    53	 1
   19    25	 1
   19    67	 1
   20    24	 1
   21    62	 1
   21    63	 1
   21    64	 1
   21    70	 1
   23    47	 1
   23    61	 1
   23    62	 1
   23    68	 1
   24    25	 1
   24    67	 1
   25    65	 1
   25    66	 1
   25    30	 1
   25    33	 1
   25    74	 1
   26    67	 1
   26    29	 1
   26    72	 1
   26    73	 1
   27    28	 1
   27    71	 1
   28    67	 1
   28    31	 1
   28    32	 1
   28   102	 1
   28    34	 1
   28    35	 1
   29    71	 1
   29    75	 1
   29    76	 1
   29   103	 1
   29    77	 1
   29    78	 1
   29    79	 1
   29    36	 1
   29    37	 1
   30    72	 1
   30    73	 1
   30    34	 1
   30    35	 1
   31    33	 1
   31    74	 1
   31    77	 1
   31    78	 1
   31    79	 1
   32    33	 1
   32    74	 1
   32    75	 1
   32    76	 1
   32   103	 1
   33    72	 1
   33    73	 1
   33   102	 1
   33    38	 1
   33    80	 1
   33    81	 1
   34    74	 1
   34    36	 1
   34    37	 1
   35    74	 1
   35    39	 1
   35    40	 1
   35    82	 1
   36    38	 1
   36    80	 1
   36    81	 1
   37    83	 1
   37    84	 1
   37    85	 1
   37    86	 1
   37    87	 1
   37    88	 1
   39    80	 1
   39    81	 1
   39    86	 1
   39    87	 1
   39    88	 1
   40    80	 1
   40    81	 1
   40    83	 1
   40    84	 1
   40    85	 1
   41    52	 1
   41    54	 1
   41    92	 1
   41    93	 1
   41    94	 1
   42    45	 1
   42    46	 1
   42    44	 1
   43    89	 1
   43    90	 1
   43    91	 1
   44    92	 1
   44    93	 1
   44    94	 1
   45    92	 1
   45    93	 1
   45    94	 1
   47    59	 1
   47    60	 1
   47    50	 1
   47    97	 1
   47    98	 1
   48    61	 1
   48    51	 1
   49    99	 1
   49   100	 1
   49   101	 1
   50    95	 1
   50    96	 1
   51    97	 1
   51    98	 1
   55    57	 1
   55    58	 1
   56    57	 1
   56    58	 1
   57    59	 1
   57    60	 1
   58    59	 1
   58    60	 1
   59    61	 1
   60    61	 1
   65    67	 1
   66    67	 1
   67    71	 1
   68    69	 1
   69    70	 1
   71    72	 1
   71    73	 1
   72    74	 1
   73    74	 1
   74   102	 1
   75   102	 1
   76   102	 1
   77   102	 1
   78   102	 1
   79   102	 1
   80    82	 1
   81    82	 1
   82    83	 1
   82    84	 1
   82    85	 1
   82    86	 1
   82    87	 1
   82    88	 1
   95    97	 1
   95    98	 1
   96    97	 1
   96    98	 1
  102   103	 1

[ angles ]
;	ai	  aj	ak funct			c0			  c1			c2			  c3
   41     1     2	5 ;      NG301     CG2R61     CG2R61
   41     1     6	5 ;      NG301     CG2R61     CG2R61
    2     1     6	5 ;     CG2R61     CG2R61     CG2R61
    1     2     3	5 ;     CG2R61     CG2R61     CG2R61
    1     2    52	5 ;     CG2R61     CG2R61      HGR61
    3     2    52	5 ;     CG2R61     CG2R61      HGR61
   19     3     2	5 ;      CG2O1     CG2R61     CG2R61
   19     3     4	5 ;      CG2O1     CG2R61     CG2R61
    2     3     4	5 ;     CG2R61     CG2R61     CG2R61
    3     4     5	5 ;     CG2R61     CG2R61     CG2R61
    3     4    53	5 ;     CG2R61     CG2R61      HGR61
    5     4    53	5 ;     CG2R61     CG2R61      HGR61
    6     5     4	5 ;     CG2R61     CG2R61     CG2R61
    6     5     7	5 ;     CG2R61     CG2R61      CG321
    4     5     7	5 ;     CG2R61     CG2R61      CG321
    1     6     5	5 ;     CG2R61     CG2R61     CG2R61
    1     6    54	5 ;     CG2R61     CG2R61      HGR61
    5     6    54	5 ;     CG2R61     CG2R61      HGR61
    5     7     8	5 ;     CG2R61      CG321      CG321
    5     7    55	5 ;     CG2R61      CG321       HGA2
    5     7    56	5 ;     CG2R61      CG321       HGA2
    8     7    55	5 ;      CG321      CG321       HGA2
    8     7    56	5 ;      CG321      CG321       HGA2
   55     7    56	5 ;       HGA2      CG321       HGA2
    9     8     7	5 ;      CG321      CG321      CG321
    9     8    57	5 ;      CG321      CG321       HGA2
    9     8    58	5 ;      CG321      CG321       HGA2
    7     8    57	5 ;      CG321      CG321       HGA2
    7     8    58	5 ;      CG321      CG321       HGA2
   57     8    58	5 ;       HGA2      CG321       HGA2
   10     9     8	5 ;      CG311      CG321      CG321
   10     9    59	5 ;      CG311      CG321       HGA2
   10     9    60	5 ;      CG311      CG321       HGA2
    8     9    59	5 ;      CG321      CG321       HGA2
    8     9    60	5 ;      CG321      CG321       HGA2
   59     9    60	5 ;       HGA2      CG321       HGA2
   11    10     9	5 ;     CG2R61      CG311      CG321
   11    10    47	5 ;     CG2R61      CG311      OG301
   11    10    61	5 ;     CG2R61      CG311       HGA1
    9    10    47	5 ;      CG321      CG311      OG301
    9    10    61	5 ;      CG321      CG311       HGA1
   47    10    61	5 ;      OG301      CG311       HGA1
   12    11    23	5 ;     CG2R61     CG2R61     CG2R61
   12    11    10	5 ;     CG2R61     CG2R61      CG311
   23    11    10	5 ;     CG2R61     CG2R61      CG311
   13    12    11	5 ;     CG2R61     CG2R61     CG2R61
   13    12    62	5 ;     CG2R61     CG2R61      HGR61
   11    12    62	5 ;     CG2R61     CG2R61      HGR61
   14    13    21	5 ;      CG321     CG2R61     CG2R61
   14    13    12	5 ;      CG321     CG2R61     CG2R61
   21    13    12	5 ;     CG2R61     CG2R61     CG2R61
   15    14    13	5 ;      OG301      CG321     CG2R61
   15    14    63	5 ;      OG301      CG321       HGA2
   15    14    64	5 ;      OG301      CG321       HGA2
   13    14    63	5 ;     CG2R61      CG321       HGA2
   13    14    64	5 ;     CG2R61      CG321       HGA2
   63    14    64	5 ;       HGA2      CG321       HGA2
   16    15    14	5 ;      CG321      OG301      CG321
   15    16    17	5 ;      OG301      CG321      CG311
   15    16    65	5 ;      OG301      CG321       HGA2
   15    16    66	5 ;      OG301      CG321       HGA2
   17    16    65	5 ;      CG311      CG321       HGA2
   17    16    66	5 ;      CG311      CG321       HGA2
   65    16    66	5 ;       HGA2      CG321       HGA2
   25    17    16	5 ;      CG311      CG311      CG321
   25    17    18	5 ;      CG311      CG311      NG2S1
   25    17    67	5 ;      CG311      CG311       HGA1
   16    17    18	5 ;      CG321      CG311      NG2S1
   16    17    67	5 ;      CG321      CG311       HGA1
   18    17    67	5 ;      NG2S1      CG311       HGA1
   17    18    24	5 ;      CG311      NG2S1       HGP1
   17    18    19	5 ;      CG311      NG2S1      CG2O1
   24    18    19	5 ;       HGP1      NG2S1      CG2O1
   18    19    20	5 ;      NG2S1      CG2O1      OG2D1
   18    19     3	5 ;      NG2S1      CG2O1     CG2R61
   20    19     3	5 ;      OG2D1      CG2O1     CG2R61
   13    21    22	5 ;     CG2R61     CG2R61     CG2R61
   13    21    68	5 ;     CG2R61     CG2R61      HGR61
   22    21    68	5 ;     CG2R61     CG2R61      HGR61
   21    22    23	5 ;     CG2R61     CG2R61     CG2R61
   21    22    69	5 ;     CG2R61     CG2R61      HGR61
   23    22    69	5 ;     CG2R61     CG2R61      HGR61
   22    23    11	5 ;     CG2R61     CG2R61     CG2R61
   22    23    70	5 ;     CG2R61     CG2R61      HGR61
   11    23    70	5 ;     CG2R61     CG2R61      HGR61
   28    25    26	5 ;      CG321      CG311      OG311
   28    25    17	5 ;      CG321      CG311      CG311
   28    25    71	5 ;      CG321      CG311       HGA1
   26    25    17	5 ;      OG311      CG311      CG311
   26    25    71	5 ;      OG311      CG311       HGA1
   17    25    71	5 ;      CG311      CG311       HGA1
   27    26    25	5 ;       HGP1      OG311      CG311
   29    28    25	5 ;      CG311      CG321      CG311
   29    28    72	5 ;      CG311      CG321       HGA2
   29    28    73	5 ;      CG311      CG321       HGA2
   25    28    72	5 ;      CG311      CG321       HGA2
   25    28    73	5 ;      CG311      CG321       HGA2
   72    28    73	5 ;       HGA2      CG321       HGA2
   30    29    28	5 ;      CG311      CG311      CG321
   30    29    33	5 ;      CG311      CG311      CG2O1
   30    29    74	5 ;      CG311      CG311       HGA1
   28    29    33	5 ;      CG321      CG311      CG2O1
   28    29    74	5 ;      CG321      CG311       HGA1
   33    29    74	5 ;      CG2O1      CG311       HGA1
   31    30    32	5 ;      CG331      CG311      CG331
   31    30    29	5 ;      CG331      CG311      CG311
   31    30   102	5 ;      CG331      CG311       HGA1
   32    30    29	5 ;      CG331      CG311      CG311
   32    30   102	5 ;      CG331      CG311       HGA1
   29    30   102	5 ;      CG311      CG311       HGA1
   30    31    75	5 ;      CG311      CG331       HGA3
   30    31    76	5 ;      CG311      CG331       HGA3
   30    31   103	5 ;      CG311      CG331       HGA3
   75    31    76	5 ;       HGA3      CG331       HGA3
   75    31   103	5 ;       HGA3      CG331       HGA3
   76    31   103	5 ;       HGA3      CG331       HGA3
   30    32    77	5 ;      CG311      CG331       HGA3
   30    32    78	5 ;      CG311      CG331       HGA3
   30    32    79	5 ;      CG311      CG331       HGA3
   77    32    78	5 ;       HGA3      CG331       HGA3
   77    32    79	5 ;       HGA3      CG331       HGA3
   78    32    79	5 ;       HGA3      CG331       HGA3
   29    33    34	5 ;      CG311      CG2O1      OG2D1
   29    33    35	5 ;      CG311      CG2O1      NG2S1
   34    33    35	5 ;      OG2D1      CG2O1      NG2S1
   36    35    33	5 ;       HGP1      NG2S1      CG2O1
   36    35    37	5 ;       HGP1      NG2S1      CG321
   33    35    37	5 ;      CG2O1      NG2S1      CG321
   35    37    38	5 ;      NG2S1      CG321      CG311
   35    37    80	5 ;      NG2S1      CG321       HGA2
   35    37    81	5 ;      NG2S1      CG321       HGA2
   38    37    80	5 ;      CG311      CG321       HGA2
   38    37    81	5 ;      CG311      CG321       HGA2
   80    37    81	5 ;       HGA2      CG321       HGA2
   37    38    39	5 ;      CG321      CG311      CG331
   37    38    40	5 ;      CG321      CG311      CG331
   37    38    82	5 ;      CG321      CG311       HGA1
   39    38    40	5 ;      CG331      CG311      CG331
   39    38    82	5 ;      CG331      CG311       HGA1
   40    38    82	5 ;      CG331      CG311       HGA1
   38    39    83	5 ;      CG311      CG331       HGA3
   38    39    84	5 ;      CG311      CG331       HGA3
   38    39    85	5 ;      CG311      CG331       HGA3
   83    39    84	5 ;       HGA3      CG331       HGA3
   83    39    85	5 ;       HGA3      CG331       HGA3
   84    39    85	5 ;       HGA3      CG331       HGA3
   38    40    86	5 ;      CG311      CG331       HGA3
   38    40    87	5 ;      CG311      CG331       HGA3
   38    40    88	5 ;      CG311      CG331       HGA3
   86    40    87	5 ;       HGA3      CG331       HGA3
   86    40    88	5 ;       HGA3      CG331       HGA3
   87    40    88	5 ;       HGA3      CG331       HGA3
   43    41    42	5 ;      SG3O2      NG301      CG331
   43    41     1	5 ;      SG3O2      NG301     CG2R61
   42    41     1	5 ;      CG331      NG301     CG2R61
   41    42    89	5 ;      NG301      CG331       HGA3
   41    42    90	5 ;      NG301      CG331       HGA3
   41    42    91	5 ;      NG301      CG331       HGA3
   89    42    90	5 ;       HGA3      CG331       HGA3
   89    42    91	5 ;       HGA3      CG331       HGA3
   90    42    91	5 ;       HGA3      CG331       HGA3
   45    43    46	5 ;      OG2P1      SG3O2      CG331
   45    43    44	5 ;      OG2P1      SG3O2      OG2P1
   45    43    41	5 ;      OG2P1      SG3O2      NG301
   46    43    44	5 ;      CG331      SG3O2      OG2P1
   46    43    41	5 ;      CG331      SG3O2      NG301
   44    43    41	5 ;      OG2P1      SG3O2      NG301
   43    46    92	5 ;      SG3O2      CG331       HGA3
   43    46    93	5 ;      SG3O2      CG331       HGA3
   43    46    94	5 ;      SG3O2      CG331       HGA3
   92    46    93	5 ;       HGA3      CG331       HGA3
   92    46    94	5 ;       HGA3      CG331       HGA3
   93    46    94	5 ;       HGA3      CG331       HGA3
   10    47    48	5 ;      CG311      OG301      CG321
   47    48    49	5 ;      OG301      CG321      CG321
   47    48    95	5 ;      OG301      CG321       HGA2
   47    48    96	5 ;      OG301      CG321       HGA2
   49    48    95	5 ;      CG321      CG321       HGA2
   49    48    96	5 ;      CG321      CG321       HGA2
   95    48    96	5 ;       HGA2      CG321       HGA2
   48    49    50	5 ;      CG321      CG321      OG301
   48    49    97	5 ;      CG321      CG321       HGA2
   48    49    98	5 ;      CG321      CG321       HGA2
   50    49    97	5 ;      OG301      CG321       HGA2
   50    49    98	5 ;      OG301      CG321       HGA2
   97    49    98	5 ;       HGA2      CG321       HGA2
   49    50    51	5 ;      CG321      OG301      CG331
   50    51    99	5 ;      OG301      CG331       HGA3
   50    51   100	5 ;      OG301      CG331       HGA3
   50    51   101	5 ;      OG301      CG331       HGA3
   99    51   100	5 ;       HGA3      CG331       HGA3
   99    51   101	5 ;       HGA3      CG331       HGA3
  100    51   101	5 ;       HGA3      CG331       HGA3

[ dihedrals ]
;	ai	  aj	ak	  al funct			  c0			c1			  c2			c3			  c4			c5
    2     1    41    43	 9 ;     CG2R61     CG2R61      NG301      SG3O2
    2     1    41    42	 9 ;     CG2R61     CG2R61      NG301      CG331
    6     1    41    43	 9 ;     CG2R61     CG2R61      NG301      SG3O2
    6     1    41    42	 9 ;     CG2R61     CG2R61      NG301      CG331
   41     1     2     3	 9 ;      NG301     CG2R61     CG2R61     CG2R61
   41     1     2    52	 9 ;      NG301     CG2R61     CG2R61      HGR61
    6     1     2     3	 9 ;     CG2R61     CG2R61     CG2R61     CG2R61
    6     1     2    52	 9 ;     CG2R61     CG2R61     CG2R61      HGR61
   41     1     6     5	 9 ;      NG301     CG2R61     CG2R61     CG2R61
   41     1     6    54	 9 ;      NG301     CG2R61     CG2R61      HGR61
    2     1     6     5	 9 ;     CG2R61     CG2R61     CG2R61     CG2R61
    2     1     6    54	 9 ;     CG2R61     CG2R61     CG2R61      HGR61
    1     2     3    19	 9 ;     CG2R61     CG2R61     CG2R61      CG2O1
    1     2     3     4	 9 ;     CG2R61     CG2R61     CG2R61     CG2R61
   52     2     3    19	 9 ;      HGR61     CG2R61     CG2R61      CG2O1
   52     2     3     4	 9 ;      HGR61     CG2R61     CG2R61     CG2R61
    2     3    19    18	 9 ;     CG2R61     CG2R61      CG2O1      NG2S1
    2     3    19    20	 9 ;     CG2R61     CG2R61      CG2O1      OG2D1
    4     3    19    18	 9 ;     CG2R61     CG2R61      CG2O1      NG2S1
    4     3    19    20	 9 ;     CG2R61     CG2R61      CG2O1      OG2D1
   19     3     4     5	 9 ;      CG2O1     CG2R61     CG2R61     CG2R61
   19     3     4    53	 9 ;      CG2O1     CG2R61     CG2R61      HGR61
    2     3     4     5	 9 ;     CG2R61     CG2R61     CG2R61     CG2R61
    2     3     4    53	 9 ;     CG2R61     CG2R61     CG2R61      HGR61
    3     4     5     6	 9 ;     CG2R61     CG2R61     CG2R61     CG2R61
    3     4     5     7	 9 ;     CG2R61     CG2R61     CG2R61      CG321
   53     4     5     6	 9 ;      HGR61     CG2R61     CG2R61     CG2R61
   53     4     5     7	 9 ;      HGR61     CG2R61     CG2R61      CG321
    4     5     6     1	 9 ;     CG2R61     CG2R61     CG2R61     CG2R61
    4     5     6    54	 9 ;     CG2R61     CG2R61     CG2R61      HGR61
    7     5     6     1	 9 ;      CG321     CG2R61     CG2R61     CG2R61
    7     5     6    54	 9 ;      CG321     CG2R61     CG2R61      HGR61
    6     5     7     8	 9 ;     CG2R61     CG2R61      CG321      CG321
    6     5     7    55	 9 ;     CG2R61     CG2R61      CG321       HGA2
    6     5     7    56	 9 ;     CG2R61     CG2R61      CG321       HGA2
    4     5     7     8	 9 ;     CG2R61     CG2R61      CG321      CG321
    4     5     7    55	 9 ;     CG2R61     CG2R61      CG321       HGA2
    4     5     7    56	 9 ;     CG2R61     CG2R61      CG321       HGA2
    5     7     8     9	 9 ;     CG2R61      CG321      CG321      CG321
    5     7     8    57	 9 ;     CG2R61      CG321      CG321       HGA2
    5     7     8    58	 9 ;     CG2R61      CG321      CG321       HGA2
   55     7     8     9	 9 ;       HGA2      CG321      CG321      CG321
   55     7     8    57	 9 ;       HGA2      CG321      CG321       HGA2
   55     7     8    58	 9 ;       HGA2      CG321      CG321       HGA2
   56     7     8     9	 9 ;       HGA2      CG321      CG321      CG321
   56     7     8    57	 9 ;       HGA2      CG321      CG321       HGA2
   56     7     8    58	 9 ;       HGA2      CG321      CG321       HGA2
    7     8     9    10	 9 ;      CG321      CG321      CG321      CG311
    7     8     9    59	 9 ;      CG321      CG321      CG321       HGA2
    7     8     9    60	 9 ;      CG321      CG321      CG321       HGA2
   57     8     9    10	 9 ;       HGA2      CG321      CG321      CG311
   57     8     9    59	 9 ;       HGA2      CG321      CG321       HGA2
   57     8     9    60	 9 ;       HGA2      CG321      CG321       HGA2
   58     8     9    10	 9 ;       HGA2      CG321      CG321      CG311
   58     8     9    59	 9 ;       HGA2      CG321      CG321       HGA2
   58     8     9    60	 9 ;       HGA2      CG321      CG321       HGA2
    8     9    10    11	 9 ;      CG321      CG321      CG311     CG2R61
    8     9    10    47	 9 ;      CG321      CG321      CG311      OG301
    8     9    10    61	 9 ;      CG321      CG321      CG311       HGA1
   59     9    10    11	 9 ;       HGA2      CG321      CG311     CG2R61
   59     9    10    47	 9 ;       HGA2      CG321      CG311      OG301
   59     9    10    61	 9 ;       HGA2      CG321      CG311       HGA1
   60     9    10    11	 9 ;       HGA2      CG321      CG311     CG2R61
   60     9    10    47	 9 ;       HGA2      CG321      CG311      OG301
   60     9    10    61	 9 ;       HGA2      CG321      CG311       HGA1
    9    10    11    12	 9 ;      CG321      CG311     CG2R61     CG2R61
    9    10    11    23	 9 ;      CG321      CG311     CG2R61     CG2R61
   47    10    11    12	 9 ;      OG301      CG311     CG2R61     CG2R61
   47    10    11    23	 9 ;      OG301      CG311     CG2R61     CG2R61
   61    10    11    12	 9 ;       HGA1      CG311     CG2R61     CG2R61
   61    10    11    23	 9 ;       HGA1      CG311     CG2R61     CG2R61
   11    10    47    48	 9 ;     CG2R61      CG311      OG301      CG321
    9    10    47    48	 9 ;      CG321      CG311      OG301      CG321
   61    10    47    48	 9 ;       HGA1      CG311      OG301      CG321
   23    11    12    13	 9 ;     CG2R61     CG2R61     CG2R61     CG2R61
   23    11    12    62	 9 ;     CG2R61     CG2R61     CG2R61      HGR61
   10    11    12    13	 9 ;      CG311     CG2R61     CG2R61     CG2R61
   10    11    12    62	 9 ;      CG311     CG2R61     CG2R61      HGR61
   12    11    23    22	 9 ;     CG2R61     CG2R61     CG2R61     CG2R61
   12    11    23    70	 9 ;     CG2R61     CG2R61     CG2R61      HGR61
   10    11    23    22	 9 ;      CG311     CG2R61     CG2R61     CG2R61
   10    11    23    70	 9 ;      CG311     CG2R61     CG2R61      HGR61
   11    12    13    14	 9 ;     CG2R61     CG2R61     CG2R61      CG321
   11    12    13    21	 9 ;     CG2R61     CG2R61     CG2R61     CG2R61
   62    12    13    14	 9 ;      HGR61     CG2R61     CG2R61      CG321
   62    12    13    21	 9 ;      HGR61     CG2R61     CG2R61     CG2R61
   21    13    14    15	 9 ;     CG2R61     CG2R61      CG321      OG301
   21    13    14    63	 9 ;     CG2R61     CG2R61      CG321       HGA2
   21    13    14    64	 9 ;     CG2R61     CG2R61      CG321       HGA2
   12    13    14    15	 9 ;     CG2R61     CG2R61      CG321      OG301
   12    13    14    63	 9 ;     CG2R61     CG2R61      CG321       HGA2
   12    13    14    64	 9 ;     CG2R61     CG2R61      CG321       HGA2
   14    13    21    22	 9 ;      CG321     CG2R61     CG2R61     CG2R61
   14    13    21    68	 9 ;      CG321     CG2R61     CG2R61      HGR61
   12    13    21    22	 9 ;     CG2R61     CG2R61     CG2R61     CG2R61
   12    13    21    68	 9 ;     CG2R61     CG2R61     CG2R61      HGR61
   13    14    15    16	 9 ;     CG2R61      CG321      OG301      CG321
   63    14    15    16	 9 ;       HGA2      CG321      OG301      CG321
   64    14    15    16	 9 ;       HGA2      CG321      OG301      CG321
   14    15    16    17	 9 ;      CG321      OG301      CG321      CG311
   14    15    16    65	 9 ;      CG321      OG301      CG321       HGA2
   14    15    16    66	 9 ;      CG321      OG301      CG321       HGA2
   15    16    17    25	 9 ;      OG301      CG321      CG311      CG311
   15    16    17    18	 9 ;      OG301      CG321      CG311      NG2S1
   15    16    17    67	 9 ;      OG301      CG321      CG311       HGA1
   65    16    17    25	 9 ;       HGA2      CG321      CG311      CG311
   65    16    17    18	 9 ;       HGA2      CG321      CG311      NG2S1
   65    16    17    67	 9 ;       HGA2      CG321      CG311       HGA1
   66    16    17    25	 9 ;       HGA2      CG321      CG311      CG311
   66    16    17    18	 9 ;       HGA2      CG321      CG311      NG2S1
   66    16    17    67	 9 ;       HGA2      CG321      CG311       HGA1
   16    17    25    28	 9 ;      CG321      CG311      CG311      CG321
   16    17    25    26	 9 ;      CG321      CG311      CG311      OG311
   16    17    25    71	 9 ;      CG321      CG311      CG311       HGA1
   18    17    25    28	 9 ;      NG2S1      CG311      CG311      CG321
   18    17    25    26	 9 ;      NG2S1      CG311      CG311      OG311
   18    17    25    71	 9 ;      NG2S1      CG311      CG311       HGA1
   67    17    25    28	 9 ;       HGA1      CG311      CG311      CG321
   67    17    25    26	 9 ;       HGA1      CG311      CG311      OG311
   67    17    25    71	 9 ;       HGA1      CG311      CG311       HGA1
   25    17    18    24	 9 ;      CG311      CG311      NG2S1       HGP1
   25    17    18    19	 9 ;      CG311      CG311      NG2S1      CG2O1
   16    17    18    24	 9 ;      CG321      CG311      NG2S1       HGP1
   16    17    18    19	 9 ;      CG321      CG311      NG2S1      CG2O1
   67    17    18    24	 9 ;       HGA1      CG311      NG2S1       HGP1
   67    17    18    19	 9 ;       HGA1      CG311      NG2S1      CG2O1
   17    18    19    20	 9 ;      CG311      NG2S1      CG2O1      OG2D1
   17    18    19     3	 9 ;      CG311      NG2S1      CG2O1     CG2R61
   24    18    19    20	 9 ;       HGP1      NG2S1      CG2O1      OG2D1
   24    18    19     3	 9 ;       HGP1      NG2S1      CG2O1     CG2R61
   13    21    22    23	 9 ;     CG2R61     CG2R61     CG2R61     CG2R61
   13    21    22    69	 9 ;     CG2R61     CG2R61     CG2R61      HGR61
   68    21    22    23	 9 ;      HGR61     CG2R61     CG2R61     CG2R61
   68    21    22    69	 9 ;      HGR61     CG2R61     CG2R61      HGR61
   21    22    23    11	 9 ;     CG2R61     CG2R61     CG2R61     CG2R61
   21    22    23    70	 9 ;     CG2R61     CG2R61     CG2R61      HGR61
   69    22    23    11	 9 ;      HGR61     CG2R61     CG2R61     CG2R61
   69    22    23    70	 9 ;      HGR61     CG2R61     CG2R61      HGR61
   26    25    28    29	 9 ;      OG311      CG311      CG321      CG311
   26    25    28    72	 9 ;      OG311      CG311      CG321       HGA2
   26    25    28    73	 9 ;      OG311      CG311      CG321       HGA2
   17    25    28    29	 9 ;      CG311      CG311      CG321      CG311
   17    25    28    72	 9 ;      CG311      CG311      CG321       HGA2
   17    25    28    73	 9 ;      CG311      CG311      CG321       HGA2
   71    25    28    29	 9 ;       HGA1      CG311      CG321      CG311
   71    25    28    72	 9 ;       HGA1      CG311      CG321       HGA2
   71    25    28    73	 9 ;       HGA1      CG311      CG321       HGA2
   28    25    26    27	 9 ;      CG321      CG311      OG311       HGP1
   17    25    26    27	 9 ;      CG311      CG311      OG311       HGP1
   71    25    26    27	 9 ;       HGA1      CG311      OG311       HGP1
   25    28    29    30	 9 ;      CG311      CG321      CG311      CG311
   25    28    29    33	 9 ;      CG311      CG321      CG311      CG2O1
   25    28    29    74	 9 ;      CG311      CG321      CG311       HGA1
   72    28    29    30	 9 ;       HGA2      CG321      CG311      CG311
   72    28    29    33	 9 ;       HGA2      CG321      CG311      CG2O1
   72    28    29    74	 9 ;       HGA2      CG321      CG311       HGA1
   73    28    29    30	 9 ;       HGA2      CG321      CG311      CG311
   73    28    29    33	 9 ;       HGA2      CG321      CG311      CG2O1
   73    28    29    74	 9 ;       HGA2      CG321      CG311       HGA1
   28    29    30    31	 9 ;      CG321      CG311      CG311      CG331
   28    29    30    32	 9 ;      CG321      CG311      CG311      CG331
   28    29    30   102	 9 ;      CG321      CG311      CG311       HGA1
   33    29    30    31	 9 ;      CG2O1      CG311      CG311      CG331
   33    29    30    32	 9 ;      CG2O1      CG311      CG311      CG331
   33    29    30   102	 9 ;      CG2O1      CG311      CG311       HGA1
   74    29    30    31	 9 ;       HGA1      CG311      CG311      CG331
   74    29    30    32	 9 ;       HGA1      CG311      CG311      CG331
   74    29    30   102	 9 ;       HGA1      CG311      CG311       HGA1
   30    29    33    34	 9 ;      CG311      CG311      CG2O1      OG2D1
   30    29    33    35	 9 ;      CG311      CG311      CG2O1      NG2S1
   28    29    33    34	 9 ;      CG321      CG311      CG2O1      OG2D1
   28    29    33    35	 9 ;      CG321      CG311      CG2O1      NG2S1
   74    29    33    34	 9 ;       HGA1      CG311      CG2O1      OG2D1
   74    29    33    35	 9 ;       HGA1      CG311      CG2O1      NG2S1
   32    30    31    75	 9 ;      CG331      CG311      CG331       HGA3
   32    30    31    76	 9 ;      CG331      CG311      CG331       HGA3
   32    30    31   103	 9 ;      CG331      CG311      CG331       HGA3
   29    30    31    75	 9 ;      CG311      CG311      CG331       HGA3
   29    30    31    76	 9 ;      CG311      CG311      CG331       HGA3
   29    30    31   103	 9 ;      CG311      CG311      CG331       HGA3
  102    30    31    75	 9 ;       HGA1      CG311      CG331       HGA3
  102    30    31    76	 9 ;       HGA1      CG311      CG331       HGA3
  102    30    31   103	 9 ;       HGA1      CG311      CG331       HGA3
   31    30    32    77	 9 ;      CG331      CG311      CG331       HGA3
   31    30    32    78	 9 ;      CG331      CG311      CG331       HGA3
   31    30    32    79	 9 ;      CG331      CG311      CG331       HGA3
   29    30    32    77	 9 ;      CG311      CG311      CG331       HGA3
   29    30    32    78	 9 ;      CG311      CG311      CG331       HGA3
   29    30    32    79	 9 ;      CG311      CG311      CG331       HGA3
  102    30    32    77	 9 ;       HGA1      CG311      CG331       HGA3
  102    30    32    78	 9 ;       HGA1      CG311      CG331       HGA3
  102    30    32    79	 9 ;       HGA1      CG311      CG331       HGA3
   29    33    35    36	 9 ;      CG311      CG2O1      NG2S1       HGP1
   29    33    35    37	 9 ;      CG311      CG2O1      NG2S1      CG321
   34    33    35    36	 9 ;      OG2D1      CG2O1      NG2S1       HGP1
   34    33    35    37	 9 ;      OG2D1      CG2O1      NG2S1      CG321
   36    35    37    38	 9 ;       HGP1      NG2S1      CG321      CG311
   36    35    37    80	 9 ;       HGP1      NG2S1      CG321       HGA2
   36    35    37    81	 9 ;       HGP1      NG2S1      CG321       HGA2
   33    35    37    38	 9 ;      CG2O1      NG2S1      CG321      CG311
   33    35    37    80	 9 ;      CG2O1      NG2S1      CG321       HGA2
   33    35    37    81	 9 ;      CG2O1      NG2S1      CG321       HGA2
   35    37    38    39	 9 ;      NG2S1      CG321      CG311      CG331
   35    37    38    40	 9 ;      NG2S1      CG321      CG311      CG331
   35    37    38    82	 9 ;      NG2S1      CG321      CG311       HGA1
   80    37    38    39	 9 ;       HGA2      CG321      CG311      CG331
   80    37    38    40	 9 ;       HGA2      CG321      CG311      CG331
   80    37    38    82	 9 ;       HGA2      CG321      CG311       HGA1
   81    37    38    39	 9 ;       HGA2      CG321      CG311      CG331
   81    37    38    40	 9 ;       HGA2      CG321      CG311      CG331
   81    37    38    82	 9 ;       HGA2      CG321      CG311       HGA1
   37    38    39    83	 9 ;      CG321      CG311      CG331       HGA3
   37    38    39    84	 9 ;      CG321      CG311      CG331       HGA3
   37    38    39    85	 9 ;      CG321      CG311      CG331       HGA3
   40    38    39    83	 9 ;      CG331      CG311      CG331       HGA3
   40    38    39    84	 9 ;      CG331      CG311      CG331       HGA3
   40    38    39    85	 9 ;      CG331      CG311      CG331       HGA3
   82    38    39    83	 9 ;       HGA1      CG311      CG331       HGA3
   82    38    39    84	 9 ;       HGA1      CG311      CG331       HGA3
   82    38    39    85	 9 ;       HGA1      CG311      CG331       HGA3
   37    38    40    86	 9 ;      CG321      CG311      CG331       HGA3
   37    38    40    87	 9 ;      CG321      CG311      CG331       HGA3
   37    38    40    88	 9 ;      CG321      CG311      CG331       HGA3
   39    38    40    86	 9 ;      CG331      CG311      CG331       HGA3
   39    38    40    87	 9 ;      CG331      CG311      CG331       HGA3
   39    38    40    88	 9 ;      CG331      CG311      CG331       HGA3
   82    38    40    86	 9 ;       HGA1      CG311      CG331       HGA3
   82    38    40    87	 9 ;       HGA1      CG311      CG331       HGA3
   82    38    40    88	 9 ;       HGA1      CG311      CG331       HGA3
   42    41    43    45	 9 ;      CG331      NG301      SG3O2      OG2P1
   42    41    43    46	 9 ;      CG331      NG301      SG3O2      CG331
   42    41    43    44	 9 ;      CG331      NG301      SG3O2      OG2P1
    1    41    43    45	 9 ;     CG2R61      NG301      SG3O2      OG2P1
    1    41    43    46	 9 ;     CG2R61      NG301      SG3O2      CG331
    1    41    43    44	 9 ;     CG2R61      NG301      SG3O2      OG2P1
   43    41    42    89	 9 ;      SG3O2      NG301      CG331       HGA3
   43    41    42    90	 9 ;      SG3O2      NG301      CG331       HGA3
   43    41    42    91	 9 ;      SG3O2      NG301      CG331       HGA3
    1    41    42    89	 9 ;     CG2R61      NG301      CG331       HGA3
    1    41    42    90	 9 ;     CG2R61      NG301      CG331       HGA3
    1    41    42    91	 9 ;     CG2R61      NG301      CG331       HGA3
   45    43    46    92	 9 ;      OG2P1      SG3O2      CG331       HGA3
   45    43    46    93	 9 ;      OG2P1      SG3O2      CG331       HGA3
   45    43    46    94	 9 ;      OG2P1      SG3O2      CG331       HGA3
   44    43    46    92	 9 ;      OG2P1      SG3O2      CG331       HGA3
   44    43    46    93	 9 ;      OG2P1      SG3O2      CG331       HGA3
   44    43    46    94	 9 ;      OG2P1      SG3O2      CG331       HGA3
   41    43    46    92	 9 ;      NG301      SG3O2      CG331       HGA3
   41    43    46    93	 9 ;      NG301      SG3O2      CG331       HGA3
   41    43    46    94	 9 ;      NG301      SG3O2      CG331       HGA3
   10    47    48    49	 9 ;      CG311      OG301      CG321      CG321
   10    47    48    95	 9 ;      CG311      OG301      CG321       HGA2
   10    47    48    96	 9 ;      CG311      OG301      CG321       HGA2
   47    48    49    50	 9 ;      OG301      CG321      CG321      OG301
   47    48    49    97	 9 ;      OG301      CG321      CG321       HGA2
   47    48    49    98	 9 ;      OG301      CG321      CG321       HGA2
   95    48    49    50	 9 ;       HGA2      CG321      CG321      OG301
   95    48    49    97	 9 ;       HGA2      CG321      CG321       HGA2
   95    48    49    98	 9 ;       HGA2      CG321      CG321       HGA2
   96    48    49    50	 9 ;       HGA2      CG321      CG321      OG301
   96    48    49    97	 9 ;       HGA2      CG321      CG321       HGA2
   96    48    49    98	 9 ;       HGA2      CG321      CG321       HGA2
   48    49    50    51	 9 ;      CG321      CG321      OG301      CG331
   97    49    50    51	 9 ;       HGA2      CG321      OG301      CG331
   98    49    50    51	 9 ;       HGA2      CG321      OG301      CG331
   49    50    51    99	 9 ;      CG321      OG301      CG331       HGA3
   49    50    51   100	 9 ;      CG321      OG301      CG331       HGA3
   49    50    51   101	 9 ;      CG321      OG301      CG331       HGA3

[ dihedrals ]
;	ai	  aj	ak	  al funct			  c0			c1			  c2			c3
   19     3    18    20	 2
   33    29    35    34	 2

