Great Red Oystrich Makes All Chemists Sane
  103
    1LIG     C1    1  -1.752   0.331  -1.913
    1LIG     C2    2  -1.636   0.265  -1.870
    1LIG     C3    3  -1.615   0.249  -1.733
    1LIG     C4    4  -1.728   0.232  -1.652
    1LIG     C5    5  -1.848   0.293  -1.691
    1LIG     C6    6  -1.855   0.349  -1.820
    1LIG     C7    7  -1.955   0.323  -1.587
    1LIG     C8    8  -1.908   0.416  -1.474
    1LIG     C9    9  -1.846   0.549  -1.517
    1LIG    C10   10  -1.927   0.642  -1.612
    1LIG    C11   11  -1.845   0.758  -1.669
    1LIG    C12   12  -1.713   0.775  -1.635
    1LIG    C13   13  -1.629   0.875  -1.687
    1LIG    C14   14  -1.489   0.879  -1.643
    1LIG     O1   15  -1.393   0.782  -1.690
    1LIG    C15   16  -1.433   0.690  -1.791
    1LIG    C16   17  -1.382   0.545  -1.760
    1LIG     N1   18  -1.479   0.457  -1.676
    1LIG    C17   19  -1.500   0.319  -1.664
    1LIG     O2   20  -1.452   0.261  -1.566
    1LIG    C18   21  -1.687   0.964  -1.782
    1LIG    C19   22  -1.821   0.950  -1.817
    1LIG    C20   23  -1.901   0.849  -1.762
    1LIG     H1   24  -1.445   0.475  -1.582
    1LIG    C21   25  -1.315   0.485  -1.887
    1LIG     O3   26  -1.323   0.566  -2.004
    1LIG     H2   27  -1.232   0.572  -2.041
    1LIG    C22   28  -1.163   0.473  -1.862
    1LIG    C23   29  -1.118   0.328  -1.833
    1LIG    C24   30  -1.000   0.295  -1.928
    1LIG    C25   31  -1.005   0.364  -2.063
    1LIG    C26   32  -0.865   0.287  -1.858
    1LIG    C27   33  -1.107   0.308  -1.680
    1LIG     O4   34  -1.121   0.399  -1.599
    1LIG     N2   35  -1.102   0.176  -1.642
    1LIG     H3   36  -1.049   0.114  -1.702
    1LIG    C28   37  -1.127   0.135  -1.504
    1LIG    C29   38  -1.077  -0.008  -1.471
    1LIG    C30   39  -0.995  -0.014  -1.343
    1LIG    C31   40  -1.197  -0.103  -1.459
    1LIG     N3   41  -1.735   0.441  -2.010
    1LIG    C32   42  -1.673   0.552  -1.937
    1LIG      S   43  -1.653   0.401  -2.155
    1LIG     O5   44  -1.707   0.274  -2.201
    1LIG     O6   45  -1.510   0.417  -2.137
    1LIG    C33   46  -1.705   0.529  -2.271
    1LIG     O7   47  -2.053   0.684  -1.556
    1LIG    C34   48  -2.168   0.633  -1.621
    1LIG    C35   49  -2.278   0.611  -1.516
    1LIG     O8   50  -2.228   0.570  -1.389
    1LIG    C36   51  -2.257   0.435  -1.356
    1LIG     HC   52  -1.565   0.226  -1.941
    1LIG    HC1   53  -1.723   0.172  -1.562
    1LIG    HC2   54  -1.943   0.406  -1.847
    1LIG    HC3   55  -1.987   0.229  -1.543
    1LIG    HC4   56  -2.040   0.370  -1.637
    1LIG    HC5   57  -1.833   0.362  -1.416
    1LIG    HC6   58  -1.993   0.437  -1.409
    1LIG    HC7   59  -1.826   0.606  -1.426
    1LIG    HC8   60  -1.750   0.528  -1.564
    1LIG    HC9   61  -1.953   0.580  -1.698
    1LIG   HC10   62  -1.670   0.707  -1.563
    1LIG   HC11   63  -1.490   0.870  -1.534
    1LIG   HC12   64  -1.449   0.978  -1.667
    1LIG   HC13   65  -1.392   0.723  -1.886
    1LIG   HC14   66  -1.542   0.690  -1.797
    1LIG   HC15   67  -1.298   0.561  -1.692
    1LIG   HC16   68  -1.627   1.042  -1.827
    1LIG   HC17   69  -1.865   1.019  -1.888
    1LIG   HC18   70  -2.004   0.841  -1.790
    1LIG   HC19   71  -1.356   0.386  -1.907
    1LIG   HC20   72  -1.110   0.508  -1.950
    1LIG   HC21   73  -1.136   0.535  -1.777
    1LIG   HC22   74  -1.200   0.265  -1.865
    1LIG   HC23   75  -0.916   0.377  -2.123
    1LIG   HC24   76  -1.099   0.402  -2.099
    1LIG   HC25   77  -0.788   0.263  -1.932
    1LIG   HC26   78  -0.868   0.208  -1.783
    1LIG   HC27   79  -0.842   0.382  -1.811
    1LIG   HC28   80  -1.075   0.205  -1.438
    1LIG   HC29   81  -1.233   0.140  -1.484
    1LIG   HC30   82  -1.015  -0.042  -1.554
    1LIG   HC31   83  -0.910   0.053  -1.351
    1LIG   HC32   84  -0.960  -0.116  -1.327
    1LIG   HC33   85  -1.057   0.016  -1.258
    1LIG   HC34   86  -1.256  -0.099  -1.551
    1LIG   HC35   87  -1.162  -0.205  -1.444
    1LIG   HC36   88  -1.259  -0.073  -1.375
    1LIG   HC37   89  -1.735   0.641  -1.948
    1LIG   HC38   90  -1.574   0.572  -1.978
    1LIG   HC39   91  -1.665   0.527  -1.832
    1LIG   HC40   92  -1.657   0.512  -2.368
    1LIG   HC41   93  -1.813   0.526  -2.283
    1LIG   HC42   94  -1.676   0.627  -2.233
    1LIG   HC43   95  -2.203   0.704  -1.696
    1LIG   HC44   96  -2.145   0.538  -1.669
    1LIG   HC45   97  -2.332   0.705  -1.503
    1LIG   HC46   98  -2.347   0.535  -1.552
    1LIG   HC47   99  -2.216   0.411  -1.258
    1LIG   HC48  100  -2.366   0.421  -1.355
    1LIG   HC49  101  -2.214   0.369  -1.432
    1LIG    H54  102  -1.020   0.191  -1.954
    1LIG    H55  103  -0.985   0.460  -2.015
   0.00000   0.00000   0.00000
