GROningen Mixture of Alchemy and Childrens' Stories
  113
    1LIG     C1    1  -1.248   0.339  -1.522
    1LIG     C2    2  -1.209   0.258  -1.397
    1LIG     O1    3  -1.099   0.170  -1.417
    1LIG     C3    4  -1.110   0.099  -1.539
    1LIG     C4    5  -1.199  -0.021  -1.525
    1LIG     C5    6  -1.158  -0.130  -1.446
    1LIG     C6    7  -1.247  -0.232  -1.416
    1LIG     F1    8  -1.208  -0.333  -1.337
    1LIG     C7    9  -1.378  -0.229  -1.463
    1LIG     C8   10  -1.417  -0.124  -1.546
    1LIG     F2   11  -1.543  -0.119  -1.591
    1LIG     C9   12  -1.328  -0.022  -1.579
    1LIG    C10   13  -1.398   0.379  -1.542
    1LIG     O2   14  -1.426   0.513  -1.503
    1LIG     H1   15  -1.348   0.569  -1.520
    1LIG    C11   16  -1.476   0.338  -1.668
    1LIG    C12   17  -1.627   0.308  -1.665
    1LIG    C13   18  -1.659   0.192  -1.569
    1LIG    C14   19  -1.722   0.426  -1.646
    1LIG     O3   20  -1.776   0.479  -1.743
    1LIG     N1   21  -1.734   0.475  -1.517
    1LIG     H2   22  -1.671   0.438  -1.448
    1LIG    C15   23  -1.830   0.577  -1.465
    1LIG    C16   24  -1.955   0.530  -1.385
    1LIG    C17   25  -2.094   0.542  -1.449
    1LIG    C18   26  -1.937   0.384  -1.342
    1LIG    C19   27  -1.751   0.694  -1.396
    1LIG     O4   28  -1.798   0.767  -1.309
    1LIG     N2   29  -1.619   0.705  -1.436
    1LIG     H3   30  -1.586   0.650  -1.514
    1LIG    C20   31  -1.532   0.814  -1.392
    1LIG    C21   32  -1.481   0.902  -1.503
    1LIG    C22   33  -1.387   0.853  -1.596
    1LIG    C23   34  -1.349   0.931  -1.705
    1LIG    C24   35  -1.402   1.058  -1.724
    1LIG    C25   36  -1.494   1.109  -1.632
    1LIG    C26   37  -1.533   1.031  -1.522
    1LIG     N3   38  -1.160   0.456  -1.541
    1LIG    C27   39  -1.134   0.537  -1.649
    1LIG     O5   40  -1.071   0.641  -1.626
    1LIG     H4   41  -1.118   0.493  -1.457
    1LIG    C28   42  -1.175   0.512  -1.791
    1LIG    C29   43  -1.269   0.600  -1.850
    1LIG    C30   44  -1.310   0.583  -1.983
    1LIG    C31   45  -1.261   0.476  -2.057
    1LIG    C32   46  -1.168   0.389  -2.000
    1LIG    C33   47  -1.125   0.407  -1.870
    1LIG    C34   48  -1.401   0.674  -2.056
    1LIG     O6   49  -1.452   0.634  -2.161
    1LIG     N4   50  -1.432   0.796  -2.000
    1LIG     H5   51  -1.400   0.814  -1.905
    1LIG    C35   52  -1.546   0.873  -2.049
    1LIG    C36   53  -1.503   1.001  -2.120
    1LIG    C37   54  -1.643   0.900  -1.936
    1LIG    C38   55  -1.712   1.023  -1.930
    1LIG    C39   56  -1.807   1.045  -1.830
    1LIG    C40   57  -1.835   0.946  -1.736
    1LIG    C41   58  -1.765   0.826  -1.740
    1LIG    C42   59  -1.670   0.803  -1.839
    1LIG     N5   60  -1.111   0.282  -2.074
    1LIG    C43   61  -0.966   0.286  -2.098
    1LIG      S   62  -1.190   0.132  -2.068
    1LIG     O7   63  -1.259   0.125  -1.941
    1LIG     O8   64  -1.096   0.029  -2.108
    1LIG    C44   65  -1.312   0.150  -2.196
    1LIG     HC   66  -1.225   0.273  -1.606
    1LIG    HC2   67  -1.295   0.198  -1.367
    1LIG    HC3   68  -1.185   0.327  -1.317
    1LIG    HC4   69  -1.010   0.066  -1.570
    1LIG    HC5   70  -1.151   0.165  -1.616
    1LIG    HC1   71  -1.056  -0.135  -1.409
    1LIG    HC6   72  -1.448  -0.306  -1.435
    1LIG    HC7   73  -1.359   0.057  -1.646
    1LIG    HC8   74  -1.448   0.321  -1.464
    1LIG    HC9   75  -1.462   0.419  -1.740
    1LIG   HC10   76  -1.426   0.250  -1.710
    1LIG   HC11   77  -1.649   0.269  -1.764
    1LIG   HC12   78  -1.872   0.623  -1.555
    1LIG   HC13   79  -1.958   0.589  -1.293
    1LIG   HC14   80  -1.587   0.876  -1.322
    1LIG   HC15   81  -1.446   0.771  -1.340
    1LIG   HC16   82  -1.344   0.755  -1.582
    1LIG   HC17   83  -1.277   0.892  -1.776
    1LIG   HC18   84  -1.373   1.118  -1.809
    1LIG   HC19   85  -1.535   1.207  -1.645
    1LIG   HC20   86  -1.604   1.071  -1.451
    1LIG   HC21   87  -1.309   0.682  -1.792
    1LIG   HC22   88  -1.294   0.460  -2.158
    1LIG   HC23   89  -1.052   0.340  -1.828
    1LIG   HC24   90  -1.597   0.811  -2.123
    1LIG   HC25   91  -1.691   1.100  -2.002
    1LIG   HC26   92  -1.860   1.139  -1.826
    1LIG   HC27   93  -1.910   0.962  -1.661
    1LIG   HC28   94  -1.785   0.749  -1.666
    1LIG   HC29   95  -1.615   0.710  -1.840
    1LIG   HC30   96  -1.422   0.979  -2.190
    1LIG   HC31   97  -1.468   1.073  -2.046
    1LIG   HC32   98  -1.588   1.043  -2.174
    1LIG   HC33   99  -1.839   0.371  -1.296
    1LIG   HC34  100  -1.944   0.319  -1.429
    1LIG   HC35  101  -2.015   0.357  -1.270
    1LIG   HC36  102  -0.931   0.389  -2.091
    1LIG   HC37  103  -0.944   0.247  -2.197
    1LIG   HC38  104  -0.915   0.225  -2.023
    1LIG   HC39  105  -1.766   0.173  -1.570
    1LIG   HC40  106  -1.606   0.102  -1.602
    1LIG   HC41  107  -1.627   0.218  -1.469
    1LIG   HC42  108  -1.372   0.059  -2.203
    1LIG   HC43  109  -1.263   0.169  -2.291
    1LIG   HC44  110  -1.378   0.234  -2.172
    1LIG   HC45  111  -2.111   0.645  -1.481
    1LIG   HC46  112  -2.170   0.514  -1.377
    1LIG   HC47  113  -2.100   0.476  -1.536
   0.00000   0.00000   0.00000
