; Created by cgenff_charmm2gmx.py

[ moleculetype ]
; Name			   nrexcl
LIG				 3

[ atoms ]
;	 nr		  type	resnr residue  atom   cgnr	   charge		mass  typeB    chargeB		massB
; residue	 1 LIG rtp LIG q	qsum
     1      CG311      1    LIG     C1      1     -0.001     12.011   ;
     2      CG321      1    LIG     C2      2      0.012     12.011   ;
     3      OG301      1    LIG     O1      3     -0.393     15.999   ;
     4      CG321      1    LIG     C3      4      0.021     12.011   ;
     5     CG2R61      1    LIG     C4      5      0.068     12.011   ;
     6     CG2R61      1    LIG     C5      6     -0.218     12.011   ;
     7     CG2R66      1    LIG     C6      7      0.261     12.011   ;
     8       FGR1      1    LIG     F1      8     -0.210     18.998   ;
     9     CG2R61      1    LIG     C7      9     -0.240     12.011   ;
    10     CG2R66      1    LIG     C8     10      0.261     12.011   ;
    11       FGR1      1    LIG     F2     11     -0.210     18.998   ;
    12     CG2R61      1    LIG     C9     12     -0.218     12.011   ;
    13      CG311      1    LIG    C10     13      0.123     12.011   ;
    14      OG311      1    LIG     O2     14     -0.648     15.999   ;
    15       HGP1      1    LIG     H1     15      0.421      1.008   ;
    16      CG321      1    LIG    C11     16     -0.187     12.011   ;
    17      CG311      1    LIG    C12     17     -0.032     12.011   ;
    18      CG331      1    LIG    C13     18     -0.266     12.011   ;
    19      CG2O1      1    LIG    C14     19      0.483     12.011   ;
    20      OG2D1      1    LIG     O3     20     -0.510     15.999   ;
    21      NG2S1      1    LIG     N1     21     -0.435     14.007   ;
    22       HGP1      1    LIG     H2     22      0.269      1.008   ;
    23      CG311      1    LIG    C15     23      0.069     12.011   ;
    24      CG311      1    LIG    C16     24     -0.078     12.011   ;
    25      CG331      1    LIG    C17     25     -0.269     12.011   ;
    26      CG331      1    LIG    C18     26     -0.269     12.011   ;
    27      CG2O1      1    LIG    C19     27      0.539     12.011   ;
    28      OG2D1      1    LIG     O4     28     -0.514     15.999   ;
    29      NG2S1      1    LIG     N2     29     -0.496     14.007   ;
    30       HGP1      1    LIG     H3     30      0.315      1.008   ;
    31      CG321      1    LIG    C20     31     -0.032     12.011   ;
    32     CG2R61      1    LIG    C21     32      0.004     12.011   ;
    33     CG2R61      1    LIG    C22     33     -0.123     12.011   ;
    34     CG2R61      1    LIG    C23     34     -0.112     12.011   ;
    35     CG2R61      1    LIG    C24     35     -0.116     12.011   ;
    36     CG2R61      1    LIG    C25     36     -0.112     12.011   ;
    37     CG2R61      1    LIG    C26     37     -0.123     12.011   ;
    38      NG2S1      1    LIG     N3     38     -0.238     14.007   ;
    39      CG2O1      1    LIG    C27     39      0.302     12.011   ;
    40      OG2D1      1    LIG     O5     40     -0.463     15.999   ;
    41       HGP1      1    LIG     H4     41      0.262      1.008   ;
    42     CG2R61      1    LIG    C28     42     -0.101     12.011   ;
    43     CG2R61      1    LIG    C29     43     -0.004     12.011   ;
    44     CG2R61      1    LIG    C30     44     -0.101     12.011   ;
    45     CG2R61      1    LIG    C31     45     -0.064     12.011   ;
    46     CG2R61      1    LIG    C32     46      0.138     12.011   ;
    47     CG2R61      1    LIG    C33     47     -0.064     12.011   ;
    48      CG2O1      1    LIG    C34     48      0.320     12.011   ;
    49      OG2D1      1    LIG     O6     49     -0.463     15.999   ;
    50      NG2S1      1    LIG     N4     50     -0.366     14.007   ;
    51       HGP1      1    LIG     H5     51      0.314      1.008   ;
    52      CG311      1    LIG    C35     52      0.138     12.011   ;
    53      CG331      1    LIG    C36     53     -0.265     12.011   ;
    54     CG2R61      1    LIG    C37     54     -0.111     12.011   ;
    55     CG2R61      1    LIG    C38     55     -0.086     12.011   ;
    56     CG2R61      1    LIG    C39     56     -0.114     12.011   ;
    57     CG2R61      1    LIG    C40     57     -0.116     12.011   ;
    58     CG2R61      1    LIG    C41     58     -0.114     12.011   ;
    59     CG2R61      1    LIG    C42     59     -0.086     12.011   ;
    60      NG301      1    LIG     N5     60     -0.228     14.007   ;
    61      CG331      1    LIG    C43     61     -0.103     12.011   ;
    62      SG3O2      1    LIG      S     62      0.397     32.060   ;
    63      OG2P1      1    LIG     O7     63     -0.388     15.999   ;
    64      OG2P1      1    LIG     O8     64     -0.388     15.999   ;
    65      CG331      1    LIG    C44     65      0.036     12.011   ;
    66       HGA1      1    LIG     HC     66      0.090      1.008   ;
    67       HGA2      1    LIG    HC2     67      0.090      1.008   ;
    68       HGA2      1    LIG    HC3     68      0.090      1.008   ;
    69       HGA2      1    LIG    HC4     69      0.090      1.008   ;
    70       HGA2      1    LIG    HC5     70      0.090      1.008   ;
    71      HGR62      1    LIG    HC1     71      0.174      1.008   ;
    72      HGR62      1    LIG    HC6     72      0.186      1.008   ;
    73      HGR62      1    LIG    HC7     73      0.174      1.008   ;
    74       HGA1      1    LIG    HC8     74      0.090      1.008   ;
    75       HGA2      1    LIG    HC9     75      0.090      1.008   ;
    76       HGA2      1    LIG   HC10     76      0.090      1.008   ;
    77       HGA1      1    LIG   HC11     77      0.090      1.008   ;
    78       HGA1      1    LIG   HC12     78      0.090      1.008   ;
    79       HGA1      1    LIG   HC13     79      0.090      1.008   ;
    80       HGA2      1    LIG   HC14     80      0.090      1.008   ;
    81       HGA2      1    LIG   HC15     81      0.090      1.008   ;
    82      HGR61      1    LIG   HC16     82      0.116      1.008   ;
    83      HGR61      1    LIG   HC17     83      0.116      1.008   ;
    84      HGR61      1    LIG   HC18     84      0.116      1.008   ;
    85      HGR61      1    LIG   HC19     85      0.116      1.008   ;
    86      HGR61      1    LIG   HC20     86      0.116      1.008   ;
    87      HGR61      1    LIG   HC21     87      0.116      1.008   ;
    88      HGR61      1    LIG   HC22     88      0.116      1.008   ;
    89      HGR61      1    LIG   HC23     89      0.116      1.008   ;
    90       HGA1      1    LIG   HC24     90      0.090      1.008   ;
    91      HGR61      1    LIG   HC25     91      0.116      1.008   ;
    92      HGR61      1    LIG   HC26     92      0.116      1.008   ;
    93      HGR61      1    LIG   HC27     93      0.116      1.008   ;
    94      HGR61      1    LIG   HC28     94      0.116      1.008   ;
    95      HGR61      1    LIG   HC29     95      0.116      1.008   ;
    96       HGA3      1    LIG   HC30     96      0.090      1.008   ;
    97       HGA3      1    LIG   HC31     97      0.090      1.008   ;
    98       HGA3      1    LIG   HC32     98      0.090      1.008   ;
    99       HGA3      1    LIG   HC33     99      0.090      1.008   ;
   100       HGA3      1    LIG   HC34    100      0.090      1.008   ;
   101       HGA3      1    LIG   HC35    101      0.090      1.008   ;
   102       HGA3      1    LIG   HC36    102      0.090      1.008   ;
   103       HGA3      1    LIG   HC37    103      0.090      1.008   ;
   104       HGA3      1    LIG   HC38    104      0.090      1.008   ;
   105       HGA3      1    LIG   HC39    105      0.090      1.008   ;
   106       HGA3      1    LIG   HC40    106      0.090      1.008   ;
   107       HGA3      1    LIG   HC41    107      0.090      1.008   ;
   108       HGA3      1    LIG   HC42    108      0.090      1.008   ;
   109       HGA3      1    LIG   HC43    109      0.090      1.008   ;
   110       HGA3      1    LIG   HC44    110      0.090      1.008   ;
   111       HGA3      1    LIG   HC45    111      0.090      1.008   ;
   112       HGA3      1    LIG   HC46    112      0.090      1.008   ;
   113       HGA3      1    LIG   HC47    113      0.090      1.008   ;

[ bonds ]
;	ai	  aj funct			  c0			c1			  c2			c3
    1    38	 1 ;       CG311      NG2S1
    1    13	 1 ;       CG311      CG311
    1     2	 1 ;       CG311      CG321
    1    66	 1 ;       CG311       HGA1
    2     3	 1 ;       CG321      OG301
    2    67	 1 ;       CG321       HGA2
    2    68	 1 ;       CG321       HGA2
    3     4	 1 ;       OG301      CG321
    4     5	 1 ;       CG321     CG2R61
    4    69	 1 ;       CG321       HGA2
    4    70	 1 ;       CG321       HGA2
    5    12	 1 ;      CG2R61     CG2R61
    5     6	 1 ;      CG2R61     CG2R61
    6     7	 1 ;      CG2R61     CG2R66
    6    71	 1 ;      CG2R61      HGR62
    7     9	 1 ;      CG2R66     CG2R61
    7     8	 1 ;      CG2R66       FGR1
    9    10	 1 ;      CG2R61     CG2R66
    9    72	 1 ;      CG2R61      HGR62
   10    12	 1 ;      CG2R66     CG2R61
   10    11	 1 ;      CG2R66       FGR1
   12    73	 1 ;      CG2R61      HGR62
   13    16	 1 ;       CG311      CG321
   13    14	 1 ;       CG311      OG311
   13    74	 1 ;       CG311       HGA1
   14    15	 1 ;       OG311       HGP1
   16    17	 1 ;       CG321      CG311
   16    75	 1 ;       CG321       HGA2
   16    76	 1 ;       CG321       HGA2
   17    19	 1 ;       CG311      CG2O1
   17    18	 1 ;       CG311      CG331
   17    77	 1 ;       CG311       HGA1
   18   105	 1 ;       CG331       HGA3
   18   106	 1 ;       CG331       HGA3
   18   107	 1 ;       CG331       HGA3
   19    20	 1 ;       CG2O1      OG2D1
   19    21	 1 ;       CG2O1      NG2S1
   21    22	 1 ;       NG2S1       HGP1
   21    23	 1 ;       NG2S1      CG311
   23    27	 1 ;       CG311      CG2O1
   23    24	 1 ;       CG311      CG311
   23    78	 1 ;       CG311       HGA1
   24    25	 1 ;       CG311      CG331
   24    26	 1 ;       CG311      CG331
   24    79	 1 ;       CG311       HGA1
   25   111	 1 ;       CG331       HGA3
   25   112	 1 ;       CG331       HGA3
   25   113	 1 ;       CG331       HGA3
   26    99	 1 ;       CG331       HGA3
   26   100	 1 ;       CG331       HGA3
   26   101	 1 ;       CG331       HGA3
   27    29	 1 ;       CG2O1      NG2S1
   27    28	 1 ;       CG2O1      OG2D1
   29    30	 1 ;       NG2S1       HGP1
   29    31	 1 ;       NG2S1      CG321
   31    32	 1 ;       CG321     CG2R61
   31    80	 1 ;       CG321       HGA2
   31    81	 1 ;       CG321       HGA2
   32    33	 1 ;      CG2R61     CG2R61
   32    37	 1 ;      CG2R61     CG2R61
   33    34	 1 ;      CG2R61     CG2R61
   33    82	 1 ;      CG2R61      HGR61
   34    35	 1 ;      CG2R61     CG2R61
   34    83	 1 ;      CG2R61      HGR61
   35    36	 1 ;      CG2R61     CG2R61
   35    84	 1 ;      CG2R61      HGR61
   36    37	 1 ;      CG2R61     CG2R61
   36    85	 1 ;      CG2R61      HGR61
   37    86	 1 ;      CG2R61      HGR61
   38    39	 1 ;       NG2S1      CG2O1
   38    41	 1 ;       NG2S1       HGP1
   39    42	 1 ;       CG2O1     CG2R61
   39    40	 1 ;       CG2O1      OG2D1
   42    47	 1 ;      CG2R61     CG2R61
   42    43	 1 ;      CG2R61     CG2R61
   43    44	 1 ;      CG2R61     CG2R61
   43    87	 1 ;      CG2R61      HGR61
   44    45	 1 ;      CG2R61     CG2R61
   44    48	 1 ;      CG2R61      CG2O1
   45    46	 1 ;      CG2R61     CG2R61
   45    88	 1 ;      CG2R61      HGR61
   46    60	 1 ;      CG2R61      NG301
   46    47	 1 ;      CG2R61     CG2R61
   47    89	 1 ;      CG2R61      HGR61
   48    49	 1 ;       CG2O1      OG2D1
   48    50	 1 ;       CG2O1      NG2S1
   50    52	 1 ;       NG2S1      CG311
   50    51	 1 ;       NG2S1       HGP1
   52    53	 1 ;       CG311      CG331
   52    54	 1 ;       CG311     CG2R61
   52    90	 1 ;       CG311       HGA1
   53    96	 1 ;       CG331       HGA3
   53    97	 1 ;       CG331       HGA3
   53    98	 1 ;       CG331       HGA3
   54    55	 1 ;      CG2R61     CG2R61
   54    59	 1 ;      CG2R61     CG2R61
   55    56	 1 ;      CG2R61     CG2R61
   55    91	 1 ;      CG2R61      HGR61
   56    57	 1 ;      CG2R61     CG2R61
   56    92	 1 ;      CG2R61      HGR61
   57    58	 1 ;      CG2R61     CG2R61
   57    93	 1 ;      CG2R61      HGR61
   58    59	 1 ;      CG2R61     CG2R61
   58    94	 1 ;      CG2R61      HGR61
   59    95	 1 ;      CG2R61      HGR61
   60    61	 1 ;       NG301      CG331
   60    62	 1 ;       NG301      SG3O2
   61   102	 1 ;       CG331       HGA3
   61   103	 1 ;       CG331       HGA3
   61   104	 1 ;       CG331       HGA3
   62    64	 1 ;       SG3O2      OG2P1
   62    65	 1 ;       SG3O2      CG331
   62    63	 1 ;       SG3O2      OG2P1
   65   108	 1 ;       CG331       HGA3
   65   109	 1 ;       CG331       HGA3
   65   110	 1 ;       CG331       HGA3

[ pairs ]
;	ai	  aj funct			  c0			c1			  c2			c3
    1     4	 1
    1    17	 1
    1    75	 1
    1    76	 1
    1    15	 1
    1    42	 1
    1    40	 1
    2    39	 1
    2    41	 1
    2    16	 1
    2    14	 1
    2    74	 1
    2     5	 1
    2    69	 1
    2    70	 1
    3    38	 1
    3    13	 1
    3    66	 1
    3    12	 1
    3     6	 1
    4    67	 1
    4    68	 1
    4    10	 1
    4    73	 1
    4     7	 1
    4    71	 1
    5     9	 1
    5     8	 1
    5    11	 1
    6    69	 1
    6    70	 1
    6    10	 1
    6    73	 1
    6    72	 1
    7    12	 1
    7    11	 1
    8    71	 1
    8    10	 1
    8    72	 1
    9    71	 1
    9    73	 1
   11    72	 1
   11    73	 1
   12    69	 1
   12    70	 1
   12    71	 1
   12    72	 1
   13    39	 1
   13    41	 1
   13    67	 1
   13    68	 1
   13    19	 1
   13    18	 1
   13    77	 1
   14    38	 1
   14    66	 1
   14    17	 1
   14    75	 1
   14    76	 1
   15    16	 1
   15    74	 1
   16    38	 1
   16    66	 1
   16    20	 1
   16    21	 1
   16   105	 1
   16   106	 1
   16   107	 1
   17    74	 1
   17    22	 1
   17    23	 1
   18    75	 1
   18    76	 1
   18    20	 1
   18    21	 1
   19    75	 1
   19    76	 1
   19   105	 1
   19   106	 1
   19   107	 1
   19    27	 1
   19    24	 1
   19    78	 1
   20    77	 1
   20    22	 1
   20    23	 1
   21    77	 1
   21    29	 1
   21    28	 1
   21    25	 1
   21    26	 1
   21    79	 1
   22    27	 1
   22    24	 1
   22    78	 1
   23   111	 1
   23   112	 1
   23   113	 1
   23    99	 1
   23   100	 1
   23   101	 1
   23    30	 1
   23    31	 1
   24    29	 1
   24    28	 1
   25    27	 1
   25    78	 1
   25    99	 1
   25   100	 1
   25   101	 1
   26    27	 1
   26    78	 1
   26   111	 1
   26   112	 1
   26   113	 1
   27    79	 1
   27    32	 1
   27    80	 1
   27    81	 1
   28    78	 1
   28    30	 1
   28    31	 1
   29    78	 1
   29    33	 1
   29    37	 1
   30    32	 1
   30    80	 1
   30    81	 1
   31    34	 1
   31    82	 1
   31    36	 1
   31    86	 1
   32    35	 1
   32    83	 1
   32    85	 1
   33    80	 1
   33    81	 1
   33    36	 1
   33    86	 1
   33    84	 1
   34    37	 1
   34    85	 1
   35    82	 1
   35    86	 1
   36    83	 1
   37    80	 1
   37    81	 1
   37    82	 1
   37    84	 1
   38    74	 1
   38    67	 1
   38    68	 1
   38    47	 1
   38    43	 1
   39    66	 1
   39    46	 1
   39    89	 1
   39    44	 1
   39    87	 1
   40    41	 1
   40    47	 1
   40    43	 1
   41    66	 1
   41    42	 1
   42    45	 1
   42    48	 1
   42    60	 1
   43    46	 1
   43    89	 1
   43    88	 1
   43    49	 1
   43    50	 1
   44    47	 1
   44    60	 1
   44    52	 1
   44    51	 1
   45    87	 1
   45    49	 1
   45    50	 1
   45    61	 1
   45    62	 1
   45    89	 1
   46    48	 1
   46   102	 1
   46   103	 1
   46   104	 1
   46    64	 1
   46    65	 1
   46    63	 1
   47    87	 1
   47    88	 1
   47    61	 1
   47    62	 1
   48    87	 1
   48    88	 1
   48    53	 1
   48    54	 1
   48    90	 1
   49    52	 1
   49    51	 1
   50    96	 1
   50    97	 1
   50    98	 1
   50    55	 1
   50    59	 1
   51    53	 1
   51    54	 1
   51    90	 1
   52    56	 1
   52    91	 1
   52    58	 1
   52    95	 1
   53    55	 1
   53    59	 1
   54    96	 1
   54    97	 1
   54    98	 1
   54    57	 1
   54    92	 1
   54    94	 1
   55    90	 1
   55    58	 1
   55    95	 1
   55    93	 1
   56    59	 1
   56    94	 1
   57    91	 1
   57    95	 1
   58    92	 1
   59    90	 1
   59    91	 1
   59    93	 1
   60    88	 1
   60    89	 1
   60   108	 1
   60   109	 1
   60   110	 1
   61    64	 1
   61    65	 1
   61    63	 1
   62   102	 1
   62   103	 1
   62   104	 1
   63   108	 1
   63   109	 1
   63   110	 1
   64   108	 1
   64   109	 1
   64   110	 1
   66    74	 1
   66    67	 1
   66    68	 1
   74    75	 1
   74    76	 1
   75    77	 1
   76    77	 1
   77   105	 1
   77   106	 1
   77   107	 1
   78    79	 1
   79   111	 1
   79   112	 1
   79   113	 1
   79    99	 1
   79   100	 1
   79   101	 1
   82    83	 1
   83    84	 1
   84    85	 1
   85    86	 1
   90    96	 1
   90    97	 1
   90    98	 1
   91    92	 1
   92    93	 1
   93    94	 1
   94    95	 1

[ angles ]
;	ai	  aj	ak funct			c0			  c1			c2			  c3
   38     1    13	5 ;      NG2S1      CG311      CG311
   38     1     2	5 ;      NG2S1      CG311      CG321
   38     1    66	5 ;      NG2S1      CG311       HGA1
   13     1     2	5 ;      CG311      CG311      CG321
   13     1    66	5 ;      CG311      CG311       HGA1
    2     1    66	5 ;      CG321      CG311       HGA1
    1     2     3	5 ;      CG311      CG321      OG301
    1     2    67	5 ;      CG311      CG321       HGA2
    1     2    68	5 ;      CG311      CG321       HGA2
    3     2    67	5 ;      OG301      CG321       HGA2
    3     2    68	5 ;      OG301      CG321       HGA2
   67     2    68	5 ;       HGA2      CG321       HGA2
    4     3     2	5 ;      CG321      OG301      CG321
    5     4     3	5 ;     CG2R61      CG321      OG301
    5     4    69	5 ;     CG2R61      CG321       HGA2
    5     4    70	5 ;     CG2R61      CG321       HGA2
    3     4    69	5 ;      OG301      CG321       HGA2
    3     4    70	5 ;      OG301      CG321       HGA2
   69     4    70	5 ;       HGA2      CG321       HGA2
    4     5    12	5 ;      CG321     CG2R61     CG2R61
    4     5     6	5 ;      CG321     CG2R61     CG2R61
   12     5     6	5 ;     CG2R61     CG2R61     CG2R61
    5     6     7	5 ;     CG2R61     CG2R61     CG2R66
    5     6    71	5 ;     CG2R61     CG2R61      HGR62
    7     6    71	5 ;     CG2R66     CG2R61      HGR62
    6     7     9	5 ;     CG2R61     CG2R66     CG2R61
    6     7     8	5 ;     CG2R61     CG2R66       FGR1
    9     7     8	5 ;     CG2R61     CG2R66       FGR1
   10     9     7	5 ;     CG2R66     CG2R61     CG2R66
   10     9    72	5 ;     CG2R66     CG2R61      HGR62
    7     9    72	5 ;     CG2R66     CG2R61      HGR62
   12    10    11	5 ;     CG2R61     CG2R66       FGR1
   12    10     9	5 ;     CG2R61     CG2R66     CG2R61
   11    10     9	5 ;       FGR1     CG2R66     CG2R61
    5    12    10	5 ;     CG2R61     CG2R61     CG2R66
    5    12    73	5 ;     CG2R61     CG2R61      HGR62
   10    12    73	5 ;     CG2R66     CG2R61      HGR62
   16    13     1	5 ;      CG321      CG311      CG311
   16    13    14	5 ;      CG321      CG311      OG311
   16    13    74	5 ;      CG321      CG311       HGA1
    1    13    14	5 ;      CG311      CG311      OG311
    1    13    74	5 ;      CG311      CG311       HGA1
   14    13    74	5 ;      OG311      CG311       HGA1
   13    14    15	5 ;      CG311      OG311       HGP1
   17    16    13	5 ;      CG311      CG321      CG311
   17    16    75	5 ;      CG311      CG321       HGA2
   17    16    76	5 ;      CG311      CG321       HGA2
   13    16    75	5 ;      CG311      CG321       HGA2
   13    16    76	5 ;      CG311      CG321       HGA2
   75    16    76	5 ;       HGA2      CG321       HGA2
   16    17    19	5 ;      CG321      CG311      CG2O1
   16    17    18	5 ;      CG321      CG311      CG331
   16    17    77	5 ;      CG321      CG311       HGA1
   19    17    18	5 ;      CG2O1      CG311      CG331
   19    17    77	5 ;      CG2O1      CG311       HGA1
   18    17    77	5 ;      CG331      CG311       HGA1
   17    18   105	5 ;      CG311      CG331       HGA3
   17    18   106	5 ;      CG311      CG331       HGA3
   17    18   107	5 ;      CG311      CG331       HGA3
  105    18   106	5 ;       HGA3      CG331       HGA3
  105    18   107	5 ;       HGA3      CG331       HGA3
  106    18   107	5 ;       HGA3      CG331       HGA3
   17    19    20	5 ;      CG311      CG2O1      OG2D1
   17    19    21	5 ;      CG311      CG2O1      NG2S1
   20    19    21	5 ;      OG2D1      CG2O1      NG2S1
   19    21    22	5 ;      CG2O1      NG2S1       HGP1
   19    21    23	5 ;      CG2O1      NG2S1      CG311
   22    21    23	5 ;       HGP1      NG2S1      CG311
   21    23    27	5 ;      NG2S1      CG311      CG2O1
   21    23    24	5 ;      NG2S1      CG311      CG311
   21    23    78	5 ;      NG2S1      CG311       HGA1
   27    23    24	5 ;      CG2O1      CG311      CG311
   27    23    78	5 ;      CG2O1      CG311       HGA1
   24    23    78	5 ;      CG311      CG311       HGA1
   23    24    25	5 ;      CG311      CG311      CG331
   23    24    26	5 ;      CG311      CG311      CG331
   23    24    79	5 ;      CG311      CG311       HGA1
   25    24    26	5 ;      CG331      CG311      CG331
   25    24    79	5 ;      CG331      CG311       HGA1
   26    24    79	5 ;      CG331      CG311       HGA1
   24    25   111	5 ;      CG311      CG331       HGA3
   24    25   112	5 ;      CG311      CG331       HGA3
   24    25   113	5 ;      CG311      CG331       HGA3
  111    25   112	5 ;       HGA3      CG331       HGA3
  111    25   113	5 ;       HGA3      CG331       HGA3
  112    25   113	5 ;       HGA3      CG331       HGA3
   24    26    99	5 ;      CG311      CG331       HGA3
   24    26   100	5 ;      CG311      CG331       HGA3
   24    26   101	5 ;      CG311      CG331       HGA3
   99    26   100	5 ;       HGA3      CG331       HGA3
   99    26   101	5 ;       HGA3      CG331       HGA3
  100    26   101	5 ;       HGA3      CG331       HGA3
   29    27    23	5 ;      NG2S1      CG2O1      CG311
   29    27    28	5 ;      NG2S1      CG2O1      OG2D1
   23    27    28	5 ;      CG311      CG2O1      OG2D1
   30    29    31	5 ;       HGP1      NG2S1      CG321
   30    29    27	5 ;       HGP1      NG2S1      CG2O1
   31    29    27	5 ;      CG321      NG2S1      CG2O1
   32    31    29	5 ;     CG2R61      CG321      NG2S1
   32    31    80	5 ;     CG2R61      CG321       HGA2
   32    31    81	5 ;     CG2R61      CG321       HGA2
   29    31    80	5 ;      NG2S1      CG321       HGA2
   29    31    81	5 ;      NG2S1      CG321       HGA2
   80    31    81	5 ;       HGA2      CG321       HGA2
   33    32    37	5 ;     CG2R61     CG2R61     CG2R61
   33    32    31	5 ;     CG2R61     CG2R61      CG321
   37    32    31	5 ;     CG2R61     CG2R61      CG321
   34    33    32	5 ;     CG2R61     CG2R61     CG2R61
   34    33    82	5 ;     CG2R61     CG2R61      HGR61
   32    33    82	5 ;     CG2R61     CG2R61      HGR61
   35    34    33	5 ;     CG2R61     CG2R61     CG2R61
   35    34    83	5 ;     CG2R61     CG2R61      HGR61
   33    34    83	5 ;     CG2R61     CG2R61      HGR61
   34    35    36	5 ;     CG2R61     CG2R61     CG2R61
   34    35    84	5 ;     CG2R61     CG2R61      HGR61
   36    35    84	5 ;     CG2R61     CG2R61      HGR61
   35    36    37	5 ;     CG2R61     CG2R61     CG2R61
   35    36    85	5 ;     CG2R61     CG2R61      HGR61
   37    36    85	5 ;     CG2R61     CG2R61      HGR61
   36    37    32	5 ;     CG2R61     CG2R61     CG2R61
   36    37    86	5 ;     CG2R61     CG2R61      HGR61
   32    37    86	5 ;     CG2R61     CG2R61      HGR61
   39    38     1	5 ;      CG2O1      NG2S1      CG311
   39    38    41	5 ;      CG2O1      NG2S1       HGP1
    1    38    41	5 ;      CG311      NG2S1       HGP1
   42    39    40	5 ;     CG2R61      CG2O1      OG2D1
   42    39    38	5 ;     CG2R61      CG2O1      NG2S1
   40    39    38	5 ;      OG2D1      CG2O1      NG2S1
   47    42    43	5 ;     CG2R61     CG2R61     CG2R61
   47    42    39	5 ;     CG2R61     CG2R61      CG2O1
   43    42    39	5 ;     CG2R61     CG2R61      CG2O1
   44    43    42	5 ;     CG2R61     CG2R61     CG2R61
   44    43    87	5 ;     CG2R61     CG2R61      HGR61
   42    43    87	5 ;     CG2R61     CG2R61      HGR61
   45    44    48	5 ;     CG2R61     CG2R61      CG2O1
   45    44    43	5 ;     CG2R61     CG2R61     CG2R61
   48    44    43	5 ;      CG2O1     CG2R61     CG2R61
   46    45    44	5 ;     CG2R61     CG2R61     CG2R61
   46    45    88	5 ;     CG2R61     CG2R61      HGR61
   44    45    88	5 ;     CG2R61     CG2R61      HGR61
   60    46    45	5 ;      NG301     CG2R61     CG2R61
   60    46    47	5 ;      NG301     CG2R61     CG2R61
   45    46    47	5 ;     CG2R61     CG2R61     CG2R61
   46    47    42	5 ;     CG2R61     CG2R61     CG2R61
   46    47    89	5 ;     CG2R61     CG2R61      HGR61
   42    47    89	5 ;     CG2R61     CG2R61      HGR61
   49    48    44	5 ;      OG2D1      CG2O1     CG2R61
   49    48    50	5 ;      OG2D1      CG2O1      NG2S1
   44    48    50	5 ;     CG2R61      CG2O1      NG2S1
   48    50    52	5 ;      CG2O1      NG2S1      CG311
   48    50    51	5 ;      CG2O1      NG2S1       HGP1
   52    50    51	5 ;      CG311      NG2S1       HGP1
   53    52    50	5 ;      CG331      CG311      NG2S1
   53    52    54	5 ;      CG331      CG311     CG2R61
   53    52    90	5 ;      CG331      CG311       HGA1
   50    52    54	5 ;      NG2S1      CG311     CG2R61
   50    52    90	5 ;      NG2S1      CG311       HGA1
   54    52    90	5 ;     CG2R61      CG311       HGA1
   52    53    96	5 ;      CG311      CG331       HGA3
   52    53    97	5 ;      CG311      CG331       HGA3
   52    53    98	5 ;      CG311      CG331       HGA3
   96    53    97	5 ;       HGA3      CG331       HGA3
   96    53    98	5 ;       HGA3      CG331       HGA3
   97    53    98	5 ;       HGA3      CG331       HGA3
   52    54    55	5 ;      CG311     CG2R61     CG2R61
   52    54    59	5 ;      CG311     CG2R61     CG2R61
   55    54    59	5 ;     CG2R61     CG2R61     CG2R61
   54    55    56	5 ;     CG2R61     CG2R61     CG2R61
   54    55    91	5 ;     CG2R61     CG2R61      HGR61
   56    55    91	5 ;     CG2R61     CG2R61      HGR61
   55    56    57	5 ;     CG2R61     CG2R61     CG2R61
   55    56    92	5 ;     CG2R61     CG2R61      HGR61
   57    56    92	5 ;     CG2R61     CG2R61      HGR61
   56    57    58	5 ;     CG2R61     CG2R61     CG2R61
   56    57    93	5 ;     CG2R61     CG2R61      HGR61
   58    57    93	5 ;     CG2R61     CG2R61      HGR61
   59    58    57	5 ;     CG2R61     CG2R61     CG2R61
   59    58    94	5 ;     CG2R61     CG2R61      HGR61
   57    58    94	5 ;     CG2R61     CG2R61      HGR61
   54    59    58	5 ;     CG2R61     CG2R61     CG2R61
   54    59    95	5 ;     CG2R61     CG2R61      HGR61
   58    59    95	5 ;     CG2R61     CG2R61      HGR61
   61    60    62	5 ;      CG331      NG301      SG3O2
   61    60    46	5 ;      CG331      NG301     CG2R61
   62    60    46	5 ;      SG3O2      NG301     CG2R61
   60    61   102	5 ;      NG301      CG331       HGA3
   60    61   103	5 ;      NG301      CG331       HGA3
   60    61   104	5 ;      NG301      CG331       HGA3
  102    61   103	5 ;       HGA3      CG331       HGA3
  102    61   104	5 ;       HGA3      CG331       HGA3
  103    61   104	5 ;       HGA3      CG331       HGA3
   64    62    65	5 ;      OG2P1      SG3O2      CG331
   64    62    60	5 ;      OG2P1      SG3O2      NG301
   64    62    63	5 ;      OG2P1      SG3O2      OG2P1
   65    62    60	5 ;      CG331      SG3O2      NG301
   65    62    63	5 ;      CG331      SG3O2      OG2P1
   60    62    63	5 ;      NG301      SG3O2      OG2P1
   62    65   108	5 ;      SG3O2      CG331       HGA3
   62    65   109	5 ;      SG3O2      CG331       HGA3
   62    65   110	5 ;      SG3O2      CG331       HGA3
  108    65   109	5 ;       HGA3      CG331       HGA3
  108    65   110	5 ;       HGA3      CG331       HGA3
  109    65   110	5 ;       HGA3      CG331       HGA3

[ dihedrals ]
;	ai	  aj	ak	  al funct			  c0			c1			  c2			c3			  c4			c5
   13     1    38    39	 9 ;      CG311      CG311      NG2S1      CG2O1
   13     1    38    41	 9 ;      CG311      CG311      NG2S1       HGP1
    2     1    38    39	 9 ;      CG321      CG311      NG2S1      CG2O1
    2     1    38    41	 9 ;      CG321      CG311      NG2S1       HGP1
   66     1    38    39	 9 ;       HGA1      CG311      NG2S1      CG2O1
   66     1    38    41	 9 ;       HGA1      CG311      NG2S1       HGP1
   38     1    13    16	 9 ;      NG2S1      CG311      CG311      CG321
   38     1    13    14	 9 ;      NG2S1      CG311      CG311      OG311
   38     1    13    74	 9 ;      NG2S1      CG311      CG311       HGA1
    2     1    13    16	 9 ;      CG321      CG311      CG311      CG321
    2     1    13    14	 9 ;      CG321      CG311      CG311      OG311
    2     1    13    74	 9 ;      CG321      CG311      CG311       HGA1
   66     1    13    16	 9 ;       HGA1      CG311      CG311      CG321
   66     1    13    14	 9 ;       HGA1      CG311      CG311      OG311
   66     1    13    74	 9 ;       HGA1      CG311      CG311       HGA1
   38     1     2     3	 9 ;      NG2S1      CG311      CG321      OG301
   38     1     2    67	 9 ;      NG2S1      CG311      CG321       HGA2
   38     1     2    68	 9 ;      NG2S1      CG311      CG321       HGA2
   13     1     2     3	 9 ;      CG311      CG311      CG321      OG301
   13     1     2    67	 9 ;      CG311      CG311      CG321       HGA2
   13     1     2    68	 9 ;      CG311      CG311      CG321       HGA2
   66     1     2     3	 9 ;       HGA1      CG311      CG321      OG301
   66     1     2    67	 9 ;       HGA1      CG311      CG321       HGA2
   66     1     2    68	 9 ;       HGA1      CG311      CG321       HGA2
    1     2     3     4	 9 ;      CG311      CG321      OG301      CG321
   67     2     3     4	 9 ;       HGA2      CG321      OG301      CG321
   68     2     3     4	 9 ;       HGA2      CG321      OG301      CG321
    2     3     4     5	 9 ;      CG321      OG301      CG321     CG2R61
    2     3     4    69	 9 ;      CG321      OG301      CG321       HGA2
    2     3     4    70	 9 ;      CG321      OG301      CG321       HGA2
    3     4     5    12	 9 ;      OG301      CG321     CG2R61     CG2R61
    3     4     5     6	 9 ;      OG301      CG321     CG2R61     CG2R61
   69     4     5    12	 9 ;       HGA2      CG321     CG2R61     CG2R61
   69     4     5     6	 9 ;       HGA2      CG321     CG2R61     CG2R61
   70     4     5    12	 9 ;       HGA2      CG321     CG2R61     CG2R61
   70     4     5     6	 9 ;       HGA2      CG321     CG2R61     CG2R61
    4     5    12    10	 9 ;      CG321     CG2R61     CG2R61     CG2R66
    4     5    12    73	 9 ;      CG321     CG2R61     CG2R61      HGR62
    6     5    12    10	 9 ;     CG2R61     CG2R61     CG2R61     CG2R66
    6     5    12    73	 9 ;     CG2R61     CG2R61     CG2R61      HGR62
    4     5     6     7	 9 ;      CG321     CG2R61     CG2R61     CG2R66
    4     5     6    71	 9 ;      CG321     CG2R61     CG2R61      HGR62
   12     5     6     7	 9 ;     CG2R61     CG2R61     CG2R61     CG2R66
   12     5     6    71	 9 ;     CG2R61     CG2R61     CG2R61      HGR62
    5     6     7     9	 9 ;     CG2R61     CG2R61     CG2R66     CG2R61
    5     6     7     8	 9 ;     CG2R61     CG2R61     CG2R66       FGR1
   71     6     7     9	 9 ;      HGR62     CG2R61     CG2R66     CG2R61
   71     6     7     8	 9 ;      HGR62     CG2R61     CG2R66       FGR1
    6     7     9    10	 9 ;     CG2R61     CG2R66     CG2R61     CG2R66
    6     7     9    72	 9 ;     CG2R61     CG2R66     CG2R61      HGR62
    8     7     9    10	 9 ;       FGR1     CG2R66     CG2R61     CG2R66
    8     7     9    72	 9 ;       FGR1     CG2R66     CG2R61      HGR62
    7     9    10    12	 9 ;     CG2R66     CG2R61     CG2R66     CG2R61
    7     9    10    11	 9 ;     CG2R66     CG2R61     CG2R66       FGR1
   72     9    10    12	 9 ;      HGR62     CG2R61     CG2R66     CG2R61
   72     9    10    11	 9 ;      HGR62     CG2R61     CG2R66       FGR1
   11    10    12     5	 9 ;       FGR1     CG2R66     CG2R61     CG2R61
   11    10    12    73	 9 ;       FGR1     CG2R66     CG2R61      HGR62
    9    10    12     5	 9 ;     CG2R61     CG2R66     CG2R61     CG2R61
    9    10    12    73	 9 ;     CG2R61     CG2R66     CG2R61      HGR62
    1    13    16    17	 9 ;      CG311      CG311      CG321      CG311
    1    13    16    75	 9 ;      CG311      CG311      CG321       HGA2
    1    13    16    76	 9 ;      CG311      CG311      CG321       HGA2
   14    13    16    17	 9 ;      OG311      CG311      CG321      CG311
   14    13    16    75	 9 ;      OG311      CG311      CG321       HGA2
   14    13    16    76	 9 ;      OG311      CG311      CG321       HGA2
   74    13    16    17	 9 ;       HGA1      CG311      CG321      CG311
   74    13    16    75	 9 ;       HGA1      CG311      CG321       HGA2
   74    13    16    76	 9 ;       HGA1      CG311      CG321       HGA2
   16    13    14    15	 9 ;      CG321      CG311      OG311       HGP1
    1    13    14    15	 9 ;      CG311      CG311      OG311       HGP1
   74    13    14    15	 9 ;       HGA1      CG311      OG311       HGP1
   13    16    17    19	 9 ;      CG311      CG321      CG311      CG2O1
   13    16    17    18	 9 ;      CG311      CG321      CG311      CG331
   13    16    17    77	 9 ;      CG311      CG321      CG311       HGA1
   75    16    17    19	 9 ;       HGA2      CG321      CG311      CG2O1
   75    16    17    18	 9 ;       HGA2      CG321      CG311      CG331
   75    16    17    77	 9 ;       HGA2      CG321      CG311       HGA1
   76    16    17    19	 9 ;       HGA2      CG321      CG311      CG2O1
   76    16    17    18	 9 ;       HGA2      CG321      CG311      CG331
   76    16    17    77	 9 ;       HGA2      CG321      CG311       HGA1
   16    17    19    20	 9 ;      CG321      CG311      CG2O1      OG2D1
   16    17    19    21	 9 ;      CG321      CG311      CG2O1      NG2S1
   18    17    19    20	 9 ;      CG331      CG311      CG2O1      OG2D1
   18    17    19    21	 9 ;      CG331      CG311      CG2O1      NG2S1
   77    17    19    20	 9 ;       HGA1      CG311      CG2O1      OG2D1
   77    17    19    21	 9 ;       HGA1      CG311      CG2O1      NG2S1
   16    17    18   105	 9 ;      CG321      CG311      CG331       HGA3
   16    17    18   106	 9 ;      CG321      CG311      CG331       HGA3
   16    17    18   107	 9 ;      CG321      CG311      CG331       HGA3
   19    17    18   105	 9 ;      CG2O1      CG311      CG331       HGA3
   19    17    18   106	 9 ;      CG2O1      CG311      CG331       HGA3
   19    17    18   107	 9 ;      CG2O1      CG311      CG331       HGA3
   77    17    18   105	 9 ;       HGA1      CG311      CG331       HGA3
   77    17    18   106	 9 ;       HGA1      CG311      CG331       HGA3
   77    17    18   107	 9 ;       HGA1      CG311      CG331       HGA3
   17    19    21    22	 9 ;      CG311      CG2O1      NG2S1       HGP1
   17    19    21    23	 9 ;      CG311      CG2O1      NG2S1      CG311
   20    19    21    22	 9 ;      OG2D1      CG2O1      NG2S1       HGP1
   20    19    21    23	 9 ;      OG2D1      CG2O1      NG2S1      CG311
   19    21    23    27	 9 ;      CG2O1      NG2S1      CG311      CG2O1
   19    21    23    24	 9 ;      CG2O1      NG2S1      CG311      CG311
   19    21    23    78	 9 ;      CG2O1      NG2S1      CG311       HGA1
   22    21    23    27	 9 ;       HGP1      NG2S1      CG311      CG2O1
   22    21    23    24	 9 ;       HGP1      NG2S1      CG311      CG311
   22    21    23    78	 9 ;       HGP1      NG2S1      CG311       HGA1
   21    23    27    29	 9 ;      NG2S1      CG311      CG2O1      NG2S1
   21    23    27    28	 9 ;      NG2S1      CG311      CG2O1      OG2D1
   24    23    27    29	 9 ;      CG311      CG311      CG2O1      NG2S1
   24    23    27    28	 9 ;      CG311      CG311      CG2O1      OG2D1
   78    23    27    29	 9 ;       HGA1      CG311      CG2O1      NG2S1
   78    23    27    28	 9 ;       HGA1      CG311      CG2O1      OG2D1
   21    23    24    25	 9 ;      NG2S1      CG311      CG311      CG331
   21    23    24    26	 9 ;      NG2S1      CG311      CG311      CG331
   21    23    24    79	 9 ;      NG2S1      CG311      CG311       HGA1
   27    23    24    25	 9 ;      CG2O1      CG311      CG311      CG331
   27    23    24    26	 9 ;      CG2O1      CG311      CG311      CG331
   27    23    24    79	 9 ;      CG2O1      CG311      CG311       HGA1
   78    23    24    25	 9 ;       HGA1      CG311      CG311      CG331
   78    23    24    26	 9 ;       HGA1      CG311      CG311      CG331
   78    23    24    79	 9 ;       HGA1      CG311      CG311       HGA1
   23    24    25   111	 9 ;      CG311      CG311      CG331       HGA3
   23    24    25   112	 9 ;      CG311      CG311      CG331       HGA3
   23    24    25   113	 9 ;      CG311      CG311      CG331       HGA3
   26    24    25   111	 9 ;      CG331      CG311      CG331       HGA3
   26    24    25   112	 9 ;      CG331      CG311      CG331       HGA3
   26    24    25   113	 9 ;      CG331      CG311      CG331       HGA3
   79    24    25   111	 9 ;       HGA1      CG311      CG331       HGA3
   79    24    25   112	 9 ;       HGA1      CG311      CG331       HGA3
   79    24    25   113	 9 ;       HGA1      CG311      CG331       HGA3
   23    24    26    99	 9 ;      CG311      CG311      CG331       HGA3
   23    24    26   100	 9 ;      CG311      CG311      CG331       HGA3
   23    24    26   101	 9 ;      CG311      CG311      CG331       HGA3
   25    24    26    99	 9 ;      CG331      CG311      CG331       HGA3
   25    24    26   100	 9 ;      CG331      CG311      CG331       HGA3
   25    24    26   101	 9 ;      CG331      CG311      CG331       HGA3
   79    24    26    99	 9 ;       HGA1      CG311      CG331       HGA3
   79    24    26   100	 9 ;       HGA1      CG311      CG331       HGA3
   79    24    26   101	 9 ;       HGA1      CG311      CG331       HGA3
   23    27    29    30	 9 ;      CG311      CG2O1      NG2S1       HGP1
   23    27    29    31	 9 ;      CG311      CG2O1      NG2S1      CG321
   28    27    29    30	 9 ;      OG2D1      CG2O1      NG2S1       HGP1
   28    27    29    31	 9 ;      OG2D1      CG2O1      NG2S1      CG321
   30    29    31    32	 9 ;       HGP1      NG2S1      CG321     CG2R61
   30    29    31    80	 9 ;       HGP1      NG2S1      CG321       HGA2
   30    29    31    81	 9 ;       HGP1      NG2S1      CG321       HGA2
   27    29    31    32	 9 ;      CG2O1      NG2S1      CG321     CG2R61
   27    29    31    80	 9 ;      CG2O1      NG2S1      CG321       HGA2
   27    29    31    81	 9 ;      CG2O1      NG2S1      CG321       HGA2
   29    31    32    33	 9 ;      NG2S1      CG321     CG2R61     CG2R61
   29    31    32    37	 9 ;      NG2S1      CG321     CG2R61     CG2R61
   80    31    32    33	 9 ;       HGA2      CG321     CG2R61     CG2R61
   80    31    32    37	 9 ;       HGA2      CG321     CG2R61     CG2R61
   81    31    32    33	 9 ;       HGA2      CG321     CG2R61     CG2R61
   81    31    32    37	 9 ;       HGA2      CG321     CG2R61     CG2R61
   37    32    33    34	 9 ;     CG2R61     CG2R61     CG2R61     CG2R61
   37    32    33    82	 9 ;     CG2R61     CG2R61     CG2R61      HGR61
   31    32    33    34	 9 ;      CG321     CG2R61     CG2R61     CG2R61
   31    32    33    82	 9 ;      CG321     CG2R61     CG2R61      HGR61
   33    32    37    36	 9 ;     CG2R61     CG2R61     CG2R61     CG2R61
   33    32    37    86	 9 ;     CG2R61     CG2R61     CG2R61      HGR61
   31    32    37    36	 9 ;      CG321     CG2R61     CG2R61     CG2R61
   31    32    37    86	 9 ;      CG321     CG2R61     CG2R61      HGR61
   32    33    34    35	 9 ;     CG2R61     CG2R61     CG2R61     CG2R61
   32    33    34    83	 9 ;     CG2R61     CG2R61     CG2R61      HGR61
   82    33    34    35	 9 ;      HGR61     CG2R61     CG2R61     CG2R61
   82    33    34    83	 9 ;      HGR61     CG2R61     CG2R61      HGR61
   33    34    35    36	 9 ;     CG2R61     CG2R61     CG2R61     CG2R61
   33    34    35    84	 9 ;     CG2R61     CG2R61     CG2R61      HGR61
   83    34    35    36	 9 ;      HGR61     CG2R61     CG2R61     CG2R61
   83    34    35    84	 9 ;      HGR61     CG2R61     CG2R61      HGR61
   34    35    36    37	 9 ;     CG2R61     CG2R61     CG2R61     CG2R61
   34    35    36    85	 9 ;     CG2R61     CG2R61     CG2R61      HGR61
   84    35    36    37	 9 ;      HGR61     CG2R61     CG2R61     CG2R61
   84    35    36    85	 9 ;      HGR61     CG2R61     CG2R61      HGR61
   35    36    37    32	 9 ;     CG2R61     CG2R61     CG2R61     CG2R61
   35    36    37    86	 9 ;     CG2R61     CG2R61     CG2R61      HGR61
   85    36    37    32	 9 ;      HGR61     CG2R61     CG2R61     CG2R61
   85    36    37    86	 9 ;      HGR61     CG2R61     CG2R61      HGR61
    1    38    39    42	 9 ;      CG311      NG2S1      CG2O1     CG2R61
    1    38    39    40	 9 ;      CG311      NG2S1      CG2O1      OG2D1
   41    38    39    42	 9 ;       HGP1      NG2S1      CG2O1     CG2R61
   41    38    39    40	 9 ;       HGP1      NG2S1      CG2O1      OG2D1
   40    39    42    47	 9 ;      OG2D1      CG2O1     CG2R61     CG2R61
   40    39    42    43	 9 ;      OG2D1      CG2O1     CG2R61     CG2R61
   38    39    42    47	 9 ;      NG2S1      CG2O1     CG2R61     CG2R61
   38    39    42    43	 9 ;      NG2S1      CG2O1     CG2R61     CG2R61
   43    42    47    46	 9 ;     CG2R61     CG2R61     CG2R61     CG2R61
   43    42    47    89	 9 ;     CG2R61     CG2R61     CG2R61      HGR61
   39    42    47    46	 9 ;      CG2O1     CG2R61     CG2R61     CG2R61
   39    42    47    89	 9 ;      CG2O1     CG2R61     CG2R61      HGR61
   47    42    43    44	 9 ;     CG2R61     CG2R61     CG2R61     CG2R61
   47    42    43    87	 9 ;     CG2R61     CG2R61     CG2R61      HGR61
   39    42    43    44	 9 ;      CG2O1     CG2R61     CG2R61     CG2R61
   39    42    43    87	 9 ;      CG2O1     CG2R61     CG2R61      HGR61
   42    43    44    45	 9 ;     CG2R61     CG2R61     CG2R61     CG2R61
   42    43    44    48	 9 ;     CG2R61     CG2R61     CG2R61      CG2O1
   87    43    44    45	 9 ;      HGR61     CG2R61     CG2R61     CG2R61
   87    43    44    48	 9 ;      HGR61     CG2R61     CG2R61      CG2O1
   48    44    45    46	 9 ;      CG2O1     CG2R61     CG2R61     CG2R61
   48    44    45    88	 9 ;      CG2O1     CG2R61     CG2R61      HGR61
   43    44    45    46	 9 ;     CG2R61     CG2R61     CG2R61     CG2R61
   43    44    45    88	 9 ;     CG2R61     CG2R61     CG2R61      HGR61
   45    44    48    49	 9 ;     CG2R61     CG2R61      CG2O1      OG2D1
   45    44    48    50	 9 ;     CG2R61     CG2R61      CG2O1      NG2S1
   43    44    48    49	 9 ;     CG2R61     CG2R61      CG2O1      OG2D1
   43    44    48    50	 9 ;     CG2R61     CG2R61      CG2O1      NG2S1
   44    45    46    60	 9 ;     CG2R61     CG2R61     CG2R61      NG301
   44    45    46    47	 9 ;     CG2R61     CG2R61     CG2R61     CG2R61
   88    45    46    60	 9 ;      HGR61     CG2R61     CG2R61      NG301
   88    45    46    47	 9 ;      HGR61     CG2R61     CG2R61     CG2R61
   45    46    60    61	 9 ;     CG2R61     CG2R61      NG301      CG331
   45    46    60    62	 9 ;     CG2R61     CG2R61      NG301      SG3O2
   47    46    60    61	 9 ;     CG2R61     CG2R61      NG301      CG331
   47    46    60    62	 9 ;     CG2R61     CG2R61      NG301      SG3O2
   60    46    47    42	 9 ;      NG301     CG2R61     CG2R61     CG2R61
   60    46    47    89	 9 ;      NG301     CG2R61     CG2R61      HGR61
   45    46    47    42	 9 ;     CG2R61     CG2R61     CG2R61     CG2R61
   45    46    47    89	 9 ;     CG2R61     CG2R61     CG2R61      HGR61
   49    48    50    52	 9 ;      OG2D1      CG2O1      NG2S1      CG311
   49    48    50    51	 9 ;      OG2D1      CG2O1      NG2S1       HGP1
   44    48    50    52	 9 ;     CG2R61      CG2O1      NG2S1      CG311
   44    48    50    51	 9 ;     CG2R61      CG2O1      NG2S1       HGP1
   48    50    52    53	 9 ;      CG2O1      NG2S1      CG311      CG331
   48    50    52    54	 9 ;      CG2O1      NG2S1      CG311     CG2R61
   48    50    52    90	 9 ;      CG2O1      NG2S1      CG311       HGA1
   51    50    52    53	 9 ;       HGP1      NG2S1      CG311      CG331
   51    50    52    54	 9 ;       HGP1      NG2S1      CG311     CG2R61
   51    50    52    90	 9 ;       HGP1      NG2S1      CG311       HGA1
   50    52    53    96	 9 ;      NG2S1      CG311      CG331       HGA3
   50    52    53    97	 9 ;      NG2S1      CG311      CG331       HGA3
   50    52    53    98	 9 ;      NG2S1      CG311      CG331       HGA3
   54    52    53    96	 9 ;     CG2R61      CG311      CG331       HGA3
   54    52    53    97	 9 ;     CG2R61      CG311      CG331       HGA3
   54    52    53    98	 9 ;     CG2R61      CG311      CG331       HGA3
   90    52    53    96	 9 ;       HGA1      CG311      CG331       HGA3
   90    52    53    97	 9 ;       HGA1      CG311      CG331       HGA3
   90    52    53    98	 9 ;       HGA1      CG311      CG331       HGA3
   53    52    54    55	 9 ;      CG331      CG311     CG2R61     CG2R61
   53    52    54    59	 9 ;      CG331      CG311     CG2R61     CG2R61
   50    52    54    55	 9 ;      NG2S1      CG311     CG2R61     CG2R61
   50    52    54    59	 9 ;      NG2S1      CG311     CG2R61     CG2R61
   90    52    54    55	 9 ;       HGA1      CG311     CG2R61     CG2R61
   90    52    54    59	 9 ;       HGA1      CG311     CG2R61     CG2R61
   52    54    55    56	 9 ;      CG311     CG2R61     CG2R61     CG2R61
   52    54    55    91	 9 ;      CG311     CG2R61     CG2R61      HGR61
   59    54    55    56	 9 ;     CG2R61     CG2R61     CG2R61     CG2R61
   59    54    55    91	 9 ;     CG2R61     CG2R61     CG2R61      HGR61
   52    54    59    58	 9 ;      CG311     CG2R61     CG2R61     CG2R61
   52    54    59    95	 9 ;      CG311     CG2R61     CG2R61      HGR61
   55    54    59    58	 9 ;     CG2R61     CG2R61     CG2R61     CG2R61
   55    54    59    95	 9 ;     CG2R61     CG2R61     CG2R61      HGR61
   54    55    56    57	 9 ;     CG2R61     CG2R61     CG2R61     CG2R61
   54    55    56    92	 9 ;     CG2R61     CG2R61     CG2R61      HGR61
   91    55    56    57	 9 ;      HGR61     CG2R61     CG2R61     CG2R61
   91    55    56    92	 9 ;      HGR61     CG2R61     CG2R61      HGR61
   55    56    57    58	 9 ;     CG2R61     CG2R61     CG2R61     CG2R61
   55    56    57    93	 9 ;     CG2R61     CG2R61     CG2R61      HGR61
   92    56    57    58	 9 ;      HGR61     CG2R61     CG2R61     CG2R61
   92    56    57    93	 9 ;      HGR61     CG2R61     CG2R61      HGR61
   56    57    58    59	 9 ;     CG2R61     CG2R61     CG2R61     CG2R61
   56    57    58    94	 9 ;     CG2R61     CG2R61     CG2R61      HGR61
   93    57    58    59	 9 ;      HGR61     CG2R61     CG2R61     CG2R61
   93    57    58    94	 9 ;      HGR61     CG2R61     CG2R61      HGR61
   57    58    59    54	 9 ;     CG2R61     CG2R61     CG2R61     CG2R61
   57    58    59    95	 9 ;     CG2R61     CG2R61     CG2R61      HGR61
   94    58    59    54	 9 ;      HGR61     CG2R61     CG2R61     CG2R61
   94    58    59    95	 9 ;      HGR61     CG2R61     CG2R61      HGR61
   62    60    61   102	 9 ;      SG3O2      NG301      CG331       HGA3
   62    60    61   103	 9 ;      SG3O2      NG301      CG331       HGA3
   62    60    61   104	 9 ;      SG3O2      NG301      CG331       HGA3
   46    60    61   102	 9 ;     CG2R61      NG301      CG331       HGA3
   46    60    61   103	 9 ;     CG2R61      NG301      CG331       HGA3
   46    60    61   104	 9 ;     CG2R61      NG301      CG331       HGA3
   61    60    62    64	 9 ;      CG331      NG301      SG3O2      OG2P1
   61    60    62    65	 9 ;      CG331      NG301      SG3O2      CG331
   61    60    62    63	 9 ;      CG331      NG301      SG3O2      OG2P1
   46    60    62    64	 9 ;     CG2R61      NG301      SG3O2      OG2P1
   46    60    62    65	 9 ;     CG2R61      NG301      SG3O2      CG331
   46    60    62    63	 9 ;     CG2R61      NG301      SG3O2      OG2P1
   64    62    65   108	 9 ;      OG2P1      SG3O2      CG331       HGA3
   64    62    65   109	 9 ;      OG2P1      SG3O2      CG331       HGA3
   64    62    65   110	 9 ;      OG2P1      SG3O2      CG331       HGA3
   60    62    65   108	 9 ;      NG301      SG3O2      CG331       HGA3
   60    62    65   109	 9 ;      NG301      SG3O2      CG331       HGA3
   60    62    65   110	 9 ;      NG301      SG3O2      CG331       HGA3
   63    62    65   108	 9 ;      OG2P1      SG3O2      CG331       HGA3
   63    62    65   109	 9 ;      OG2P1      SG3O2      CG331       HGA3
   63    62    65   110	 9 ;      OG2P1      SG3O2      CG331       HGA3

[ dihedrals ]
;	ai	  aj	ak	  al funct			  c0			c1			  c2			c3
   19    17    21    20	 2
   27    23    29    28	 2
   39    42    38    40	 2
   48    44    50    49	 2

