; Created by cgenff_charmm2gmx.py

[ moleculetype ]
; Name			   nrexcl
LIG				 3

[ atoms ]
;	 nr		  type	resnr residue  atom   cgnr	   charge		mass  typeB    chargeB		massB
; residue	 1 LIG rtp LIG q	qsum
     1      OG2D1      1    LIG     O1      1     -0.325     15.999   ;
     2     CG2R53      1    LIG     C1      2     -0.445     12.011   ;
     3     NG2R53      1    LIG     N1      3     -0.178     14.007   ;
     4      CG331      1    LIG     C2      4     -0.169     12.011   ;
     5     CG3C53      1    LIG     C3      5      0.785     12.011   ;
     6      NG3P2      1    LIG     N2      6     -0.588     14.007   ;
     7       HGP2      1    LIG     HN      7      0.336      1.008   ;
     8     CG3C50      1    LIG     C4      8      1.440     12.011   ;
     9      CG311      1    LIG     C5      9     -0.044     12.011   ;
    10      CG321      1    LIG     C6     10     -0.129     12.011   ;
    11      CG321      1    LIG     C7     11     -0.241     12.011   ;
    12      CG321      1    LIG     C8     12     -0.154     12.011   ;
    13      CG321      1    LIG     C9     13     -0.241     12.011   ;
    14      CG321      1    LIG    C10     14     -0.129     12.011   ;
    15     CG2R61      1    LIG    C11     15     -0.212     12.011   ;
    16     CG2R61      1    LIG    C12     16     -0.134     12.011   ;
    17     CG2R61      1    LIG    C13     17      0.108     12.011   ;
    18     CG2R61      1    LIG    C14     18     -0.119     12.011   ;
    19     CG2R61      1    LIG    C15     19     -0.102     12.011   ;
    20     CG2R61      1    LIG    C16     20     -0.131     12.011   ;
    21      NG2S1      1    LIG     N3     21     -0.555     14.007   ;
    22      CG2O1      1    LIG    C17     22      0.807     12.011   ;
    23      OG2D1      1    LIG     O2     23     -0.491     15.999   ;
    24       HGP1      1    LIG     H1     24      0.323      1.008   ;
    25     CG2R51      1    LIG    C18     25     -0.328     12.011   ;
    26     NG2R51      1    LIG     N4     26      0.101     14.007   ;
    27     CG2R51      1    LIG    C19     27      0.071     12.011   ;
    28      CG331      1    LIG    C20     28     -0.173     12.011   ;
    29     CG2R51      1    LIG    C21     29     -0.376     12.011   ;
    30     CG2R51      1    LIG    C22     30     -0.200     12.011   ;
    31      NG3P3      1    LIG     N5     31     -0.267     14.007   ;
    32       HGP2      1    LIG     H2     32      0.301      1.008   ;
    33       HGP2      1    LIG     H3     33      0.301      1.008   ;
    34       HGA3      1    LIG    HC1     34      0.090      1.008   ;
    35       HGA3      1    LIG    HC2     35      0.090      1.008   ;
    36       HGA3      1    LIG    HC3     36      0.090      1.008   ;
    37       HGA1      1    LIG     HC     37      0.073      1.008   ;
    38       HGP2      1    LIG    HN2     38      0.336      1.008   ;
    39       HGA1      1    LIG    HC4     39      0.090      1.008   ;
    40       HGA2      1    LIG    HC5     40      0.090      1.008   ;
    41       HGA2      1    LIG    HC6     41      0.090      1.008   ;
    42       HGA2      1    LIG    HC7     42      0.090      1.008   ;
    43       HGA2      1    LIG    HC8     43      0.090      1.008   ;
    44       HGA2      1    LIG    HC9     44      0.090      1.008   ;
    45       HGA2      1    LIG   HC10     45      0.090      1.008   ;
    46       HGA2      1    LIG   HC11     46      0.090      1.008   ;
    47       HGA2      1    LIG   HC12     47      0.090      1.008   ;
    48       HGA2      1    LIG   HC13     48      0.090      1.008   ;
    49       HGA2      1    LIG   HC14     49      0.090      1.008   ;
    50      HGR61      1    LIG   HC15     50      0.116      1.008   ;
    51      HGR61      1    LIG   HC16     51      0.116      1.008   ;
    52      HGR61      1    LIG   HC17     52      0.116      1.008   ;
    53      HGR61      1    LIG   HC18     53      0.116      1.008   ;
    54      HGR52      1    LIG   HC19     54      0.071      1.008   ;
    55       HGA3      1    LIG   HC20     55      0.090      1.008   ;
    56       HGA3      1    LIG   HC21     56      0.090      1.008   ;
    57       HGA3      1    LIG   HC22     57      0.090      1.008   ;
    58      HGR51      1    LIG   HC23     58      0.175      1.008   ;
    59      HGR51      1    LIG   HC24     59      0.208      1.008   ;
    60       HGP2      1    LIG    HN1     60      0.301      1.008   ;

[ bonds ]
;	ai	  aj funct			  c0			c1			  c2			c3
    1     2	 1 ;       OG2D1     CG2R53
    2     3	 1 ;      CG2R53     NG2R53
    2     8	 1 ;      CG2R53     CG3C50
    3     4	 1 ;      NG2R53      CG331
    3     5	 1 ;      NG2R53     CG3C53
    4    34	 1 ;       CG331       HGA3
    4    35	 1 ;       CG331       HGA3
    4    36	 1 ;       CG331       HGA3
    5     6	 1 ;      CG3C53      NG3P2
    5    31	 1 ;      CG3C53      NG3P3
    5    37	 1 ;      CG3C53       HGA1
    6     8	 1 ;       NG3P2     CG3C50
    6     7	 1 ;       NG3P2       HGP2
    6    38	 1 ;       NG3P2       HGP2
    8    15	 1 ;      CG3C50     CG2R61
    8     9	 1 ;      CG3C50      CG311
    9    10	 1 ;       CG311      CG321
    9    14	 1 ;       CG311      CG321
    9    39	 1 ;       CG311       HGA1
   10    11	 1 ;       CG321      CG321
   10    40	 1 ;       CG321       HGA2
   10    41	 1 ;       CG321       HGA2
   11    12	 1 ;       CG321      CG321
   11    42	 1 ;       CG321       HGA2
   11    43	 1 ;       CG321       HGA2
   12    13	 1 ;       CG321      CG321
   12    44	 1 ;       CG321       HGA2
   12    45	 1 ;       CG321       HGA2
   13    14	 1 ;       CG321      CG321
   13    46	 1 ;       CG321       HGA2
   13    47	 1 ;       CG321       HGA2
   14    48	 1 ;       CG321       HGA2
   14    49	 1 ;       CG321       HGA2
   15    20	 1 ;      CG2R61     CG2R61
   15    16	 1 ;      CG2R61     CG2R61
   16    17	 1 ;      CG2R61     CG2R61
   16    50	 1 ;      CG2R61      HGR61
   17    18	 1 ;      CG2R61     CG2R61
   17    21	 1 ;      CG2R61      NG2S1
   18    19	 1 ;      CG2R61     CG2R61
   18    51	 1 ;      CG2R61      HGR61
   19    20	 1 ;      CG2R61     CG2R61
   19    52	 1 ;      CG2R61      HGR61
   20    53	 1 ;      CG2R61      HGR61
   21    22	 1 ;       NG2S1      CG2O1
   21    24	 1 ;       NG2S1       HGP1
   22    23	 1 ;       CG2O1      OG2D1
   22    25	 1 ;       CG2O1     CG2R51
   25    30	 1 ;      CG2R51     CG2R51
   25    26	 1 ;      CG2R51     NG2R51
   26    27	 1 ;      NG2R51     CG2R51
   26    28	 1 ;      NG2R51      CG331
   27    29	 1 ;      CG2R51     CG2R51
   27    54	 1 ;      CG2R51      HGR52
   28    55	 1 ;       CG331       HGA3
   28    56	 1 ;       CG331       HGA3
   28    57	 1 ;       CG331       HGA3
   29    30	 1 ;      CG2R51     CG2R51
   29    58	 1 ;      CG2R51      HGR51
   30    59	 1 ;      CG2R51      HGR51
   31    33	 1 ;       NG3P3       HGP2
   31    32	 1 ;       NG3P3       HGP2
   31    60	 1 ;       NG3P3       HGP2

[ pairs ]
;	ai	  aj funct			  c0			c1			  c2			c3
    1     4	 1
    1     5	 1
    1    15	 1
    1     6	 1
    1     9	 1
    2    34	 1
    2    35	 1
    2    36	 1
    2    31	 1
    2    37	 1
    2     7	 1
    2    38	 1
    2    20	 1
    2    16	 1
    2    10	 1
    2    14	 1
    2    39	 1
    3    15	 1
    3     9	 1
    3     7	 1
    3    38	 1
    3    33	 1
    3    32	 1
    3    60	 1
    4     8	 1
    4     6	 1
    4    31	 1
    4    37	 1
    5    34	 1
    5    35	 1
    5    36	 1
    5    15	 1
    5     9	 1
    6    33	 1
    6    32	 1
    6    60	 1
    6    20	 1
    6    16	 1
    6    10	 1
    6    14	 1
    6    39	 1
    7    31	 1
    7    37	 1
    7    15	 1
    7     9	 1
    8    31	 1
    8    37	 1
    8    11	 1
    8    40	 1
    8    41	 1
    8    13	 1
    8    48	 1
    8    49	 1
    8    19	 1
    8    53	 1
    8    17	 1
    8    50	 1
    9    38	 1
    9    20	 1
    9    16	 1
    9    12	 1
    9    42	 1
    9    43	 1
    9    46	 1
    9    47	 1
   10    15	 1
   10    13	 1
   10    48	 1
   10    49	 1
   10    44	 1
   10    45	 1
   11    14	 1
   11    39	 1
   11    46	 1
   11    47	 1
   12    40	 1
   12    41	 1
   12    48	 1
   12    49	 1
   13    39	 1
   13    42	 1
   13    43	 1
   14    15	 1
   14    40	 1
   14    41	 1
   14    44	 1
   14    45	 1
   15    38	 1
   15    39	 1
   15    18	 1
   15    21	 1
   15    52	 1
   16    19	 1
   16    53	 1
   16    51	 1
   16    22	 1
   16    24	 1
   17    20	 1
   17    52	 1
   17    23	 1
   17    25	 1
   18    50	 1
   18    22	 1
   18    24	 1
   18    53	 1
   19    21	 1
   20    50	 1
   20    51	 1
   21    50	 1
   21    51	 1
   21    30	 1
   21    26	 1
   22    29	 1
   22    59	 1
   22    27	 1
   22    28	 1
   23    24	 1
   23    30	 1
   23    26	 1
   24    25	 1
   25    54	 1
   25    55	 1
   25    56	 1
   25    57	 1
   25    58	 1
   26    59	 1
   26    58	 1
   27    55	 1
   27    56	 1
   27    57	 1
   27    59	 1
   28    30	 1
   28    29	 1
   28    54	 1
   30    54	 1
   31    38	 1
   32    37	 1
   33    37	 1
   37    38	 1
   37    60	 1
   39    40	 1
   39    41	 1
   39    48	 1
   39    49	 1
   40    42	 1
   40    43	 1
   41    42	 1
   41    43	 1
   42    44	 1
   42    45	 1
   43    44	 1
   43    45	 1
   44    46	 1
   44    47	 1
   45    46	 1
   45    47	 1
   46    48	 1
   46    49	 1
   47    48	 1
   47    49	 1
   51    52	 1
   52    53	 1
   54    58	 1
   58    59	 1

[ angles ]
;	ai	  aj	ak funct			c0			  c1			c2			  c3
    1     2     3	5 ;      OG2D1     CG2R53     NG2R53
    1     2     8	5 ;      OG2D1     CG2R53     CG3C50
    3     2     8	5 ;     NG2R53     CG2R53     CG3C50
    2     3     4	5 ;     CG2R53     NG2R53      CG331
    2     3     5	5 ;     CG2R53     NG2R53     CG3C53
    4     3     5	5 ;      CG331     NG2R53     CG3C53
    3     4    34	5 ;     NG2R53      CG331       HGA3
    3     4    35	5 ;     NG2R53      CG331       HGA3
    3     4    36	5 ;     NG2R53      CG331       HGA3
   34     4    35	5 ;       HGA3      CG331       HGA3
   34     4    36	5 ;       HGA3      CG331       HGA3
   35     4    36	5 ;       HGA3      CG331       HGA3
    3     5     6	5 ;     NG2R53     CG3C53      NG3P2
    3     5    31	5 ;     NG2R53     CG3C53      NG3P3
    3     5    37	5 ;     NG2R53     CG3C53       HGA1
    6     5    31	5 ;      NG3P2     CG3C53      NG3P3
    6     5    37	5 ;      NG3P2     CG3C53       HGA1
   31     5    37	5 ;      NG3P3     CG3C53       HGA1
    8     6     5	5 ;     CG3C50      NG3P2     CG3C53
    8     6     7	5 ;     CG3C50      NG3P2       HGP2
    8     6    38	5 ;     CG3C50      NG3P2       HGP2
    5     6     7	5 ;     CG3C53      NG3P2       HGP2
    5     6    38	5 ;     CG3C53      NG3P2       HGP2
    7     6    38	5 ;       HGP2      NG3P2       HGP2
   15     8     2	5 ;     CG2R61     CG3C50     CG2R53
   15     8     6	5 ;     CG2R61     CG3C50      NG3P2
   15     8     9	5 ;     CG2R61     CG3C50      CG311
    2     8     6	5 ;     CG2R53     CG3C50      NG3P2
    2     8     9	5 ;     CG2R53     CG3C50      CG311
    6     8     9	5 ;      NG3P2     CG3C50      CG311
    8     9    10	5 ;     CG3C50      CG311      CG321
    8     9    14	5 ;     CG3C50      CG311      CG321
    8     9    39	5 ;     CG3C50      CG311       HGA1
   10     9    14	5 ;      CG321      CG311      CG321
   10     9    39	5 ;      CG321      CG311       HGA1
   14     9    39	5 ;      CG321      CG311       HGA1
    9    10    11	5 ;      CG311      CG321      CG321
    9    10    40	5 ;      CG311      CG321       HGA2
    9    10    41	5 ;      CG311      CG321       HGA2
   11    10    40	5 ;      CG321      CG321       HGA2
   11    10    41	5 ;      CG321      CG321       HGA2
   40    10    41	5 ;       HGA2      CG321       HGA2
   10    11    12	5 ;      CG321      CG321      CG321
   10    11    42	5 ;      CG321      CG321       HGA2
   10    11    43	5 ;      CG321      CG321       HGA2
   12    11    42	5 ;      CG321      CG321       HGA2
   12    11    43	5 ;      CG321      CG321       HGA2
   42    11    43	5 ;       HGA2      CG321       HGA2
   11    12    13	5 ;      CG321      CG321      CG321
   11    12    44	5 ;      CG321      CG321       HGA2
   11    12    45	5 ;      CG321      CG321       HGA2
   13    12    44	5 ;      CG321      CG321       HGA2
   13    12    45	5 ;      CG321      CG321       HGA2
   44    12    45	5 ;       HGA2      CG321       HGA2
   14    13    12	5 ;      CG321      CG321      CG321
   14    13    46	5 ;      CG321      CG321       HGA2
   14    13    47	5 ;      CG321      CG321       HGA2
   12    13    46	5 ;      CG321      CG321       HGA2
   12    13    47	5 ;      CG321      CG321       HGA2
   46    13    47	5 ;       HGA2      CG321       HGA2
    9    14    13	5 ;      CG311      CG321      CG321
    9    14    48	5 ;      CG311      CG321       HGA2
    9    14    49	5 ;      CG311      CG321       HGA2
   13    14    48	5 ;      CG321      CG321       HGA2
   13    14    49	5 ;      CG321      CG321       HGA2
   48    14    49	5 ;       HGA2      CG321       HGA2
   20    15    16	5 ;     CG2R61     CG2R61     CG2R61
   20    15     8	5 ;     CG2R61     CG2R61     CG3C50
   16    15     8	5 ;     CG2R61     CG2R61     CG3C50
   17    16    15	5 ;     CG2R61     CG2R61     CG2R61
   17    16    50	5 ;     CG2R61     CG2R61      HGR61
   15    16    50	5 ;     CG2R61     CG2R61      HGR61
   18    17    21	5 ;     CG2R61     CG2R61      NG2S1
   18    17    16	5 ;     CG2R61     CG2R61     CG2R61
   21    17    16	5 ;      NG2S1     CG2R61     CG2R61
   19    18    17	5 ;     CG2R61     CG2R61     CG2R61
   19    18    51	5 ;     CG2R61     CG2R61      HGR61
   17    18    51	5 ;     CG2R61     CG2R61      HGR61
   18    19    20	5 ;     CG2R61     CG2R61     CG2R61
   18    19    52	5 ;     CG2R61     CG2R61      HGR61
   20    19    52	5 ;     CG2R61     CG2R61      HGR61
   19    20    15	5 ;     CG2R61     CG2R61     CG2R61
   19    20    53	5 ;     CG2R61     CG2R61      HGR61
   15    20    53	5 ;     CG2R61     CG2R61      HGR61
   22    21    17	5 ;      CG2O1      NG2S1     CG2R61
   22    21    24	5 ;      CG2O1      NG2S1       HGP1
   17    21    24	5 ;     CG2R61      NG2S1       HGP1
   23    22    25	5 ;      OG2D1      CG2O1     CG2R51
   23    22    21	5 ;      OG2D1      CG2O1      NG2S1
   25    22    21	5 ;     CG2R51      CG2O1      NG2S1
   22    25    30	5 ;      CG2O1     CG2R51     CG2R51
   22    25    26	5 ;      CG2O1     CG2R51     NG2R51
   30    25    26	5 ;     CG2R51     CG2R51     NG2R51
   25    26    27	5 ;     CG2R51     NG2R51     CG2R51
   25    26    28	5 ;     CG2R51     NG2R51      CG331
   27    26    28	5 ;     CG2R51     NG2R51      CG331
   29    27    26	5 ;     CG2R51     CG2R51     NG2R51
   29    27    54	5 ;     CG2R51     CG2R51      HGR52
   26    27    54	5 ;     NG2R51     CG2R51      HGR52
   26    28    55	5 ;     NG2R51      CG331       HGA3
   26    28    56	5 ;     NG2R51      CG331       HGA3
   26    28    57	5 ;     NG2R51      CG331       HGA3
   55    28    56	5 ;       HGA3      CG331       HGA3
   55    28    57	5 ;       HGA3      CG331       HGA3
   56    28    57	5 ;       HGA3      CG331       HGA3
   30    29    27	5 ;     CG2R51     CG2R51     CG2R51
   30    29    58	5 ;     CG2R51     CG2R51      HGR51
   27    29    58	5 ;     CG2R51     CG2R51      HGR51
   25    30    29	5 ;     CG2R51     CG2R51     CG2R51
   25    30    59	5 ;     CG2R51     CG2R51      HGR51
   29    30    59	5 ;     CG2R51     CG2R51      HGR51
   33    31     5	5 ;       HGP2      NG3P3     CG3C53
   33    31    32	5 ;       HGP2      NG3P3       HGP2
   33    31    60	5 ;       HGP2      NG3P3       HGP2
    5    31    32	5 ;     CG3C53      NG3P3       HGP2
    5    31    60	5 ;     CG3C53      NG3P3       HGP2
   32    31    60	5 ;       HGP2      NG3P3       HGP2

[ dihedrals ]
;	ai	  aj	ak	  al funct			  c0			c1			  c2			c3			  c4			c5
    1     2     3     4	 9 ;      OG2D1     CG2R53     NG2R53      CG331
    1     2     3     5	 9 ;      OG2D1     CG2R53     NG2R53     CG3C53
    8     2     3     4	 9 ;     CG3C50     CG2R53     NG2R53      CG331
    8     2     3     5	 9 ;     CG3C50     CG2R53     NG2R53     CG3C53
    1     2     8    15	 9 ;      OG2D1     CG2R53     CG3C50     CG2R61
    1     2     8     6	 9 ;      OG2D1     CG2R53     CG3C50      NG3P2
    1     2     8     9	 9 ;      OG2D1     CG2R53     CG3C50      CG311
    3     2     8    15	 9 ;     NG2R53     CG2R53     CG3C50     CG2R61
    3     2     8     6	 9 ;     NG2R53     CG2R53     CG3C50      NG3P2
    3     2     8     9	 9 ;     NG2R53     CG2R53     CG3C50      CG311
    2     3     4    34	 9 ;     CG2R53     NG2R53      CG331       HGA3
    2     3     4    35	 9 ;     CG2R53     NG2R53      CG331       HGA3
    2     3     4    36	 9 ;     CG2R53     NG2R53      CG331       HGA3
    5     3     4    34	 9 ;     CG3C53     NG2R53      CG331       HGA3
    5     3     4    35	 9 ;     CG3C53     NG2R53      CG331       HGA3
    5     3     4    36	 9 ;     CG3C53     NG2R53      CG331       HGA3
    2     3     5     6	 9 ;     CG2R53     NG2R53     CG3C53      NG3P2
    2     3     5    31	 9 ;     CG2R53     NG2R53     CG3C53      NG3P3
    2     3     5    37	 9 ;     CG2R53     NG2R53     CG3C53       HGA1
    4     3     5     6	 9 ;      CG331     NG2R53     CG3C53      NG3P2
    4     3     5    31	 9 ;      CG331     NG2R53     CG3C53      NG3P3
    4     3     5    37	 9 ;      CG331     NG2R53     CG3C53       HGA1
    3     5     6     8	 9 ;     NG2R53     CG3C53      NG3P2     CG3C50
    3     5     6     7	 9 ;     NG2R53     CG3C53      NG3P2       HGP2
    3     5     6    38	 9 ;     NG2R53     CG3C53      NG3P2       HGP2
   31     5     6     8	 9 ;      NG3P3     CG3C53      NG3P2     CG3C50
   31     5     6     7	 9 ;      NG3P3     CG3C53      NG3P2       HGP2
   31     5     6    38	 9 ;      NG3P3     CG3C53      NG3P2       HGP2
   37     5     6     8	 9 ;       HGA1     CG3C53      NG3P2     CG3C50
   37     5     6     7	 9 ;       HGA1     CG3C53      NG3P2       HGP2
   37     5     6    38	 9 ;       HGA1     CG3C53      NG3P2       HGP2
    3     5    31    33	 9 ;     NG2R53     CG3C53      NG3P3       HGP2
    3     5    31    32	 9 ;     NG2R53     CG3C53      NG3P3       HGP2
    3     5    31    60	 9 ;     NG2R53     CG3C53      NG3P3       HGP2
    6     5    31    33	 9 ;      NG3P2     CG3C53      NG3P3       HGP2
    6     5    31    32	 9 ;      NG3P2     CG3C53      NG3P3       HGP2
    6     5    31    60	 9 ;      NG3P2     CG3C53      NG3P3       HGP2
   37     5    31    33	 9 ;       HGA1     CG3C53      NG3P3       HGP2
   37     5    31    32	 9 ;       HGA1     CG3C53      NG3P3       HGP2
   37     5    31    60	 9 ;       HGA1     CG3C53      NG3P3       HGP2
    5     6     8    15	 9 ;     CG3C53      NG3P2     CG3C50     CG2R61
    5     6     8     2	 9 ;     CG3C53      NG3P2     CG3C50     CG2R53
    5     6     8     9	 9 ;     CG3C53      NG3P2     CG3C50      CG311
    7     6     8    15	 9 ;       HGP2      NG3P2     CG3C50     CG2R61
    7     6     8     2	 9 ;       HGP2      NG3P2     CG3C50     CG2R53
    7     6     8     9	 9 ;       HGP2      NG3P2     CG3C50      CG311
   38     6     8    15	 9 ;       HGP2      NG3P2     CG3C50     CG2R61
   38     6     8     2	 9 ;       HGP2      NG3P2     CG3C50     CG2R53
   38     6     8     9	 9 ;       HGP2      NG3P2     CG3C50      CG311
    2     8    15    20	 9 ;     CG2R53     CG3C50     CG2R61     CG2R61
    2     8    15    16	 9 ;     CG2R53     CG3C50     CG2R61     CG2R61
    6     8    15    20	 9 ;      NG3P2     CG3C50     CG2R61     CG2R61
    6     8    15    16	 9 ;      NG3P2     CG3C50     CG2R61     CG2R61
    9     8    15    20	 9 ;      CG311     CG3C50     CG2R61     CG2R61
    9     8    15    16	 9 ;      CG311     CG3C50     CG2R61     CG2R61
   15     8     9    10	 9 ;     CG2R61     CG3C50      CG311      CG321
   15     8     9    14	 9 ;     CG2R61     CG3C50      CG311      CG321
   15     8     9    39	 9 ;     CG2R61     CG3C50      CG311       HGA1
    2     8     9    10	 9 ;     CG2R53     CG3C50      CG311      CG321
    2     8     9    14	 9 ;     CG2R53     CG3C50      CG311      CG321
    2     8     9    39	 9 ;     CG2R53     CG3C50      CG311       HGA1
    6     8     9    10	 9 ;      NG3P2     CG3C50      CG311      CG321
    6     8     9    14	 9 ;      NG3P2     CG3C50      CG311      CG321
    6     8     9    39	 9 ;      NG3P2     CG3C50      CG311       HGA1
    8     9    10    11	 9 ;     CG3C50      CG311      CG321      CG321
    8     9    10    40	 9 ;     CG3C50      CG311      CG321       HGA2
    8     9    10    41	 9 ;     CG3C50      CG311      CG321       HGA2
   14     9    10    11	 9 ;      CG321      CG311      CG321      CG321
   14     9    10    40	 9 ;      CG321      CG311      CG321       HGA2
   14     9    10    41	 9 ;      CG321      CG311      CG321       HGA2
   39     9    10    11	 9 ;       HGA1      CG311      CG321      CG321
   39     9    10    40	 9 ;       HGA1      CG311      CG321       HGA2
   39     9    10    41	 9 ;       HGA1      CG311      CG321       HGA2
    8     9    14    13	 9 ;     CG3C50      CG311      CG321      CG321
    8     9    14    48	 9 ;     CG3C50      CG311      CG321       HGA2
    8     9    14    49	 9 ;     CG3C50      CG311      CG321       HGA2
   10     9    14    13	 9 ;      CG321      CG311      CG321      CG321
   10     9    14    48	 9 ;      CG321      CG311      CG321       HGA2
   10     9    14    49	 9 ;      CG321      CG311      CG321       HGA2
   39     9    14    13	 9 ;       HGA1      CG311      CG321      CG321
   39     9    14    48	 9 ;       HGA1      CG311      CG321       HGA2
   39     9    14    49	 9 ;       HGA1      CG311      CG321       HGA2
    9    10    11    12	 9 ;      CG311      CG321      CG321      CG321
    9    10    11    42	 9 ;      CG311      CG321      CG321       HGA2
    9    10    11    43	 9 ;      CG311      CG321      CG321       HGA2
   40    10    11    12	 9 ;       HGA2      CG321      CG321      CG321
   40    10    11    42	 9 ;       HGA2      CG321      CG321       HGA2
   40    10    11    43	 9 ;       HGA2      CG321      CG321       HGA2
   41    10    11    12	 9 ;       HGA2      CG321      CG321      CG321
   41    10    11    42	 9 ;       HGA2      CG321      CG321       HGA2
   41    10    11    43	 9 ;       HGA2      CG321      CG321       HGA2
   10    11    12    13	 9 ;      CG321      CG321      CG321      CG321
   10    11    12    44	 9 ;      CG321      CG321      CG321       HGA2
   10    11    12    45	 9 ;      CG321      CG321      CG321       HGA2
   42    11    12    13	 9 ;       HGA2      CG321      CG321      CG321
   42    11    12    44	 9 ;       HGA2      CG321      CG321       HGA2
   42    11    12    45	 9 ;       HGA2      CG321      CG321       HGA2
   43    11    12    13	 9 ;       HGA2      CG321      CG321      CG321
   43    11    12    44	 9 ;       HGA2      CG321      CG321       HGA2
   43    11    12    45	 9 ;       HGA2      CG321      CG321       HGA2
   11    12    13    14	 9 ;      CG321      CG321      CG321      CG321
   11    12    13    46	 9 ;      CG321      CG321      CG321       HGA2
   11    12    13    47	 9 ;      CG321      CG321      CG321       HGA2
   44    12    13    14	 9 ;       HGA2      CG321      CG321      CG321
   44    12    13    46	 9 ;       HGA2      CG321      CG321       HGA2
   44    12    13    47	 9 ;       HGA2      CG321      CG321       HGA2
   45    12    13    14	 9 ;       HGA2      CG321      CG321      CG321
   45    12    13    46	 9 ;       HGA2      CG321      CG321       HGA2
   45    12    13    47	 9 ;       HGA2      CG321      CG321       HGA2
   12    13    14     9	 9 ;      CG321      CG321      CG321      CG311
   12    13    14    48	 9 ;      CG321      CG321      CG321       HGA2
   12    13    14    49	 9 ;      CG321      CG321      CG321       HGA2
   46    13    14     9	 9 ;       HGA2      CG321      CG321      CG311
   46    13    14    48	 9 ;       HGA2      CG321      CG321       HGA2
   46    13    14    49	 9 ;       HGA2      CG321      CG321       HGA2
   47    13    14     9	 9 ;       HGA2      CG321      CG321      CG311
   47    13    14    48	 9 ;       HGA2      CG321      CG321       HGA2
   47    13    14    49	 9 ;       HGA2      CG321      CG321       HGA2
   16    15    20    19	 9 ;     CG2R61     CG2R61     CG2R61     CG2R61
   16    15    20    53	 9 ;     CG2R61     CG2R61     CG2R61      HGR61
    8    15    20    19	 9 ;     CG3C50     CG2R61     CG2R61     CG2R61
    8    15    20    53	 9 ;     CG3C50     CG2R61     CG2R61      HGR61
   20    15    16    17	 9 ;     CG2R61     CG2R61     CG2R61     CG2R61
   20    15    16    50	 9 ;     CG2R61     CG2R61     CG2R61      HGR61
    8    15    16    17	 9 ;     CG3C50     CG2R61     CG2R61     CG2R61
    8    15    16    50	 9 ;     CG3C50     CG2R61     CG2R61      HGR61
   15    16    17    18	 9 ;     CG2R61     CG2R61     CG2R61     CG2R61
   15    16    17    21	 9 ;     CG2R61     CG2R61     CG2R61      NG2S1
   50    16    17    18	 9 ;      HGR61     CG2R61     CG2R61     CG2R61
   50    16    17    21	 9 ;      HGR61     CG2R61     CG2R61      NG2S1
   21    17    18    19	 9 ;      NG2S1     CG2R61     CG2R61     CG2R61
   21    17    18    51	 9 ;      NG2S1     CG2R61     CG2R61      HGR61
   16    17    18    19	 9 ;     CG2R61     CG2R61     CG2R61     CG2R61
   16    17    18    51	 9 ;     CG2R61     CG2R61     CG2R61      HGR61
   18    17    21    22	 9 ;     CG2R61     CG2R61      NG2S1      CG2O1
   18    17    21    24	 9 ;     CG2R61     CG2R61      NG2S1       HGP1
   16    17    21    22	 9 ;     CG2R61     CG2R61      NG2S1      CG2O1
   16    17    21    24	 9 ;     CG2R61     CG2R61      NG2S1       HGP1
   17    18    19    20	 9 ;     CG2R61     CG2R61     CG2R61     CG2R61
   17    18    19    52	 9 ;     CG2R61     CG2R61     CG2R61      HGR61
   51    18    19    20	 9 ;      HGR61     CG2R61     CG2R61     CG2R61
   51    18    19    52	 9 ;      HGR61     CG2R61     CG2R61      HGR61
   18    19    20    15	 9 ;     CG2R61     CG2R61     CG2R61     CG2R61
   18    19    20    53	 9 ;     CG2R61     CG2R61     CG2R61      HGR61
   52    19    20    15	 9 ;      HGR61     CG2R61     CG2R61     CG2R61
   52    19    20    53	 9 ;      HGR61     CG2R61     CG2R61      HGR61
   17    21    22    23	 9 ;     CG2R61      NG2S1      CG2O1      OG2D1
   17    21    22    25	 9 ;     CG2R61      NG2S1      CG2O1     CG2R51
   24    21    22    23	 9 ;       HGP1      NG2S1      CG2O1      OG2D1
   24    21    22    25	 9 ;       HGP1      NG2S1      CG2O1     CG2R51
   23    22    25    30	 9 ;      OG2D1      CG2O1     CG2R51     CG2R51
   23    22    25    26	 9 ;      OG2D1      CG2O1     CG2R51     NG2R51
   21    22    25    30	 9 ;      NG2S1      CG2O1     CG2R51     CG2R51
   21    22    25    26	 9 ;      NG2S1      CG2O1     CG2R51     NG2R51
   22    25    30    29	 9 ;      CG2O1     CG2R51     CG2R51     CG2R51
   22    25    30    59	 9 ;      CG2O1     CG2R51     CG2R51      HGR51
   26    25    30    29	 9 ;     NG2R51     CG2R51     CG2R51     CG2R51
   26    25    30    59	 9 ;     NG2R51     CG2R51     CG2R51      HGR51
   22    25    26    27	 9 ;      CG2O1     CG2R51     NG2R51     CG2R51
   22    25    26    28	 9 ;      CG2O1     CG2R51     NG2R51      CG331
   30    25    26    27	 9 ;     CG2R51     CG2R51     NG2R51     CG2R51
   30    25    26    28	 9 ;     CG2R51     CG2R51     NG2R51      CG331
   25    26    27    29	 9 ;     CG2R51     NG2R51     CG2R51     CG2R51
   25    26    27    54	 9 ;     CG2R51     NG2R51     CG2R51      HGR52
   28    26    27    29	 9 ;      CG331     NG2R51     CG2R51     CG2R51
   28    26    27    54	 9 ;      CG331     NG2R51     CG2R51      HGR52
   25    26    28    55	 9 ;     CG2R51     NG2R51      CG331       HGA3
   25    26    28    56	 9 ;     CG2R51     NG2R51      CG331       HGA3
   25    26    28    57	 9 ;     CG2R51     NG2R51      CG331       HGA3
   27    26    28    55	 9 ;     CG2R51     NG2R51      CG331       HGA3
   27    26    28    56	 9 ;     CG2R51     NG2R51      CG331       HGA3
   27    26    28    57	 9 ;     CG2R51     NG2R51      CG331       HGA3
   26    27    29    30	 9 ;     NG2R51     CG2R51     CG2R51     CG2R51
   26    27    29    58	 9 ;     NG2R51     CG2R51     CG2R51      HGR51
   54    27    29    30	 9 ;      HGR52     CG2R51     CG2R51     CG2R51
   54    27    29    58	 9 ;      HGR52     CG2R51     CG2R51      HGR51
   27    29    30    25	 9 ;     CG2R51     CG2R51     CG2R51     CG2R51
   27    29    30    59	 9 ;     CG2R51     CG2R51     CG2R51      HGR51
   58    29    30    25	 9 ;      HGR51     CG2R51     CG2R51     CG2R51
   58    29    30    59	 9 ;      HGR51     CG2R51     CG2R51      HGR51

[ dihedrals ]
;	ai	  aj	ak	  al funct			  c0			c1			  c2			c3
    2     8     3     1	 2
   22    25    21    23	 2

