GROtesk MACabre and Sinister
   60
    1LIG     O1    1  -1.559   0.573  -1.875
    1LIG     C1    2  -1.615   0.621  -1.778
    1LIG     N1    3  -1.713   0.717  -1.782
    1LIG     C2    4  -1.781   0.758  -1.902
    1LIG     C3    5  -1.738   0.757  -1.656
    1LIG     N2    6  -1.678   0.692  -1.562
    1LIG     HN    7  -1.682   0.711  -1.462
    1LIG     C4    8  -1.600   0.582  -1.630
    1LIG     C5    9  -1.681   0.449  -1.607
    1LIG     C6   10  -1.728   0.383  -1.738
    1LIG     C7   11  -1.796   0.249  -1.711
    1LIG     C8   12  -1.914   0.265  -1.617
    1LIG     C9   13  -1.872   0.331  -1.486
    1LIG    C10   14  -1.800   0.464  -1.510
    1LIG    C11   15  -1.456   0.576  -1.577
    1LIG    C12   16  -1.402   0.453  -1.535
    1LIG    C13   17  -1.268   0.438  -1.497
    1LIG    C14   18  -1.186   0.551  -1.499
    1LIG    C15   19  -1.237   0.675  -1.538
    1LIG    C16   20  -1.371   0.688  -1.576
    1LIG     N3   21  -1.212   0.315  -1.454
    1LIG    C17   22  -1.149   0.221  -1.533
    1LIG     O2   23  -1.118   0.238  -1.650
    1LIG     H1   24  -1.213   0.298  -1.354
    1LIG    C18   25  -1.118   0.096  -1.464
    1LIG     N4   26  -1.188  -0.022  -1.479
    1LIG    C19   27  -1.143  -0.116  -1.388
    1LIG    C20   28  -1.293  -0.052  -1.574
    1LIG    C21   29  -1.040  -0.060  -1.317
    1LIG    C22   30  -1.022   0.072  -1.366
    1LIG     N5   31  -1.821   0.860  -1.629
    1LIG     H2   32  -1.851   0.860  -1.532
    1LIG     H3   33  -1.789   0.952  -1.659
    1LIG    HC1   34  -1.737   0.708  -1.988
    1LIG    HC2   35  -1.887   0.732  -1.895
    1LIG    HC3   36  -1.771   0.866  -1.914
    1LIG     HC   37  -1.823   0.687  -1.650
    1LIG    HN2   38  -1.757   0.630  -1.554
    1LIG    HC4   39  -1.612   0.379  -1.560
    1LIG    HC5   40  -1.642   0.367  -1.803
    1LIG    HC6   41  -1.798   0.449  -1.788
    1LIG    HC7   42  -1.831   0.207  -1.806
    1LIG    HC8   43  -1.724   0.181  -1.667
    1LIG    HC9   44  -1.956   0.167  -1.594
    1LIG   HC10   45  -1.990   0.326  -1.665
    1LIG   HC11   46  -1.961   0.350  -1.425
    1LIG   HC12   47  -1.805   0.264  -1.432
    1LIG   HC13   48  -1.764   0.502  -1.415
    1LIG   HC14   49  -1.871   0.535  -1.553
    1LIG   HC15   50  -1.466   0.366  -1.533
    1LIG   HC16   51  -1.082   0.543  -1.470
    1LIG   HC17   52  -1.173   0.762  -1.539
    1LIG   HC18   53  -1.409   0.784  -1.605
    1LIG   HC19   54  -1.182  -0.215  -1.375
    1LIG   HC20   55  -1.312   0.037  -1.635
    1LIG   HC21   56  -1.384  -0.079  -1.521
    1LIG   HC22   57  -1.262  -0.134  -1.638
    1LIG   HC23   58  -0.982  -0.108  -1.239
    1LIG   HC24   59  -0.947   0.142  -1.333
    1LIG    HN1   60  -1.905   0.843  -1.683
   0.00000   0.00000   0.00000
