GROningen Mixture of Alchemy and Childrens' Stories
   26
    1LIG     O2    1   1.957   4.000  -1.076
    1LIG     C1    2   1.949   3.923  -1.302
    1LIG     C2    3   1.898   3.943  -1.165
    1LIG     O3    4   2.011   3.887  -1.568
    1LIG     C3    5   2.190   4.043  -1.559
    1LIG     C4    6   2.265   4.133  -1.480
    1LIG     C5    7   2.228   4.015  -1.691
    1LIG     C6    8   2.380   4.189  -1.536
    1LIG     C7    9   2.341   4.075  -1.746
    1LIG     C8   10   2.417   4.162  -1.668
    1LIG     C9   11   2.026   4.012  -1.366
    1LIG    C10   12   2.071   4.148  -1.321
    1LIG    C11   13   2.070   3.973  -1.504
    1LIG    C12   14   2.222   4.163  -1.338
    1LIG     O1   15   2.463   4.273  -1.468
    1LIG     H1   16   2.542   4.293  -1.521
    1LIG     O4   17   1.775   3.888  -1.150
    1LIG    H10   18   1.753   3.862  -1.059
    1LIG     H2   19   1.924   3.836  -1.351
    1LIG     H3   20   2.172   3.949  -1.747
    1LIG     H4   21   2.368   4.056  -1.843
    1LIG     H5   22   2.500   4.207  -1.708
    1LIG     H6   23   2.046   4.160  -1.217
    1LIG     H7   24   2.022   4.222  -1.379
    1LIG     H8   25   2.250   4.264  -1.314
    1LIG     H9   26   2.270   4.093  -1.273
   0.00000   0.00000   0.00000
