Georgetown Riga Oslo Madrid Amsterdam Chisinau Stockholm
   59
    1LIG     O1    1  -1.591   0.783  -1.773
    1LIG     C1    2  -1.619   0.784  -1.654
    1LIG     N1    3  -1.710   0.865  -1.593
    1LIG     C2    4  -1.805   0.946  -1.666
    1LIG     C3    5  -1.711   0.837  -1.462
    1LIG     N2    6  -1.634   0.742  -1.422
    1LIG     HN    7  -1.618   0.711  -1.325
    1LIG     C4    8  -1.572   0.684  -1.546
    1LIG     C5    9  -1.643   0.545  -1.575
    1LIG     C6   10  -1.661   0.458  -1.448
    1LIG     C7   11  -1.728   0.325  -1.476
    1LIG     C8   12  -1.650   0.246  -1.580
    1LIG     C9   13  -1.635   0.327  -1.709
    1LIG    C10   14  -1.570   0.463  -1.684
    1LIG    C11   15  -1.420   0.673  -1.537
    1LIG    C12   16  -1.358   0.550  -1.503
    1LIG    C13   17  -1.219   0.538  -1.485
    1LIG    C14   18  -1.140   0.653  -1.499
    1LIG    C15   19  -1.199   0.775  -1.535
    1LIG    C16   20  -1.337   0.784  -1.555
    1LIG     N3   21  -1.153   0.415  -1.460
    1LIG    C17   22  -1.137   0.354  -1.337
    1LIG     O2   23  -1.158   0.409  -1.228
    1LIG     H1   24  -1.111   0.369  -1.540
    1LIG    C18   25  -1.089   0.211  -1.336
    1LIG    C19   26  -0.975   0.171  -1.426
    1LIG     O3   27  -1.017   0.127  -1.556
    1LIG    C20   28  -1.138   0.051  -1.552
    1LIG     N4   29  -1.790   0.906  -1.375
    1LIG     H2   30  -1.745   0.990  -1.341
    1LIG     H3   31  -1.886   0.920  -1.403
    1LIG    HC1   32  -1.777   0.950  -1.771
    1LIG    HC2   33  -1.904   0.902  -1.657
    1LIG    HC3   34  -1.806   1.047  -1.625
    1LIG     HC   35  -1.631   0.909  -1.445
    1LIG    HN2   36  -1.711   0.677  -1.429
    1LIG    HC4   37  -1.743   0.567  -1.613
    1LIG    HC5   38  -1.722   0.514  -1.376
    1LIG    HC6   39  -1.563   0.440  -1.403
    1LIG    HC7   40  -1.733   0.267  -1.384
    1LIG    HC8   41  -1.829   0.343  -1.513
    1LIG    HC9   42  -1.703   0.154  -1.602
    1LIG   HC10   43  -1.552   0.223  -1.541
    1LIG   HC11   44  -1.573   0.271  -1.779
    1LIG   HC12   45  -1.734   0.343  -1.753
    1LIG   HC13   46  -1.570   0.520  -1.777
    1LIG   HC14   47  -1.466   0.448  -1.652
    1LIG   HC15   48  -1.420   0.462  -1.491
    1LIG   HC16   49  -1.034   0.647  -1.481
    1LIG   HC17   50  -1.137   0.862  -1.548
    1LIG   HC18   51  -1.380   0.878  -1.586
    1LIG   HC19   52  -1.059   0.188  -1.234
    1LIG   HC20   53  -1.175   0.147  -1.360
    1LIG   HC21   54  -0.909   0.257  -1.439
    1LIG   HC22   55  -0.919   0.090  -1.379
    1LIG   HC23   56  -1.146  -0.008  -1.643
    1LIG   HC24   57  -1.137  -0.015  -1.466
    1LIG   HC25   58  -1.223   0.119  -1.545
    1LIG    HN1   59  -1.796   0.846  -1.294
   0.00000   0.00000   0.00000
