; Created by cgenff_charmm2gmx.py

[ moleculetype ]
; Name			   nrexcl
LIG				 3

[ atoms ]
;	 nr		  type	resnr residue  atom   cgnr	   charge		mass  typeB    chargeB		massB
; residue	 1 LIG rtp LIG q	qsum
     1     CG3C50      1    LIG     C1      1      1.599     12.011   ;
     2      NG3P2      1    LIG     N1      2     -0.701     14.007   ;
     3       HGP2      1    LIG     HN      3      0.353      1.008   ;
     4     CG3C53      1    LIG     C2      4      0.784     12.011   ;
     5     NG2R53      1    LIG     N2      5     -0.171     14.007   ;
     6      CG331      1    LIG     C3      6     -0.169     12.011   ;
     7     CG2R53      1    LIG     C4      7     -0.361     12.011   ;
     8      OG2D1      1    LIG     O1      8     -0.342     15.999   ;
     9     CG2R61      1    LIG     C5      9     -0.125     12.011   ;
    10     CG2R61      1    LIG     C6     10     -0.166     12.011   ;
    11     CG2R61      1    LIG     C7     11     -0.083     12.011   ;
    12     CG2R66      1    LIG     C8     12     -0.107     12.011   ;
    13       FGR1      1    LIG     F1     13     -0.185     18.998   ;
    14     CG2R61      1    LIG     C9     14      0.368     12.011   ;
    15     CG2R61      1    LIG    C10     15     -0.166     12.011   ;
    16      OG301      1    LIG     O2     16     -0.231     15.999   ;
    17      CG321      1    LIG    C11     17     -0.059     12.011   ;
    18      CG322      1    LIG    C12     18      0.080     12.011   ;
    19       FGA1      1    LIG     F2     19     -0.217     18.998   ;
    20     CG2R61      1    LIG    C13     20     -0.154     12.011   ;
    21     CG2R61      1    LIG    C14     21     -0.128     12.011   ;
    22     CG2R61      1    LIG    C15     22     -0.108     12.011   ;
    23     CG2R61      1    LIG    C16     23      0.217     12.011   ;
    24     CG2R61      1    LIG    C17     24     -0.108     12.011   ;
    25     CG2R61      1    LIG    C18     25     -0.128     12.011   ;
    26      OG301      1    LIG     O3     26     -0.272     15.999   ;
    27      CG312      1    LIG    C19     27      0.216     12.011   ;
    28       FGA2      1    LIG     F3     28     -0.160     18.998   ;
    29       FGA2      1    LIG     F4     29     -0.160     18.998   ;
    30      NG3P3      1    LIG     N3     30     -0.267     14.007   ;
    31       HGP2      1    LIG     H1     31      0.301      1.008   ;
    32       HGP2      1    LIG     H2     32      0.301      1.008   ;
    33       HGP2      1    LIG    HN2     33      0.353      1.008   ;
    34       HGA1      1    LIG     HC     34      0.073      1.008   ;
    35      HGR61      1    LIG    HC1     35      0.116      1.008   ;
    36      HGR62      1    LIG    HC2     36      0.179      1.008   ;
    37      HGR61      1    LIG    HC3     37      0.116      1.008   ;
    38       HGA2      1    LIG    HC4     38      0.090      1.008   ;
    39       HGA2      1    LIG    HC5     39      0.090      1.008   ;
    40       HGA6      1    LIG    HC6     40      0.069      1.008   ;
    41       HGA6      1    LIG    HC7     41      0.069      1.008   ;
    42      HGR61      1    LIG    HC8     42      0.116      1.008   ;
    43      HGR61      1    LIG    HC9     43      0.116      1.008   ;
    44      HGR61      1    LIG   HC10     44      0.116      1.008   ;
    45      HGR61      1    LIG   HC11     45      0.116      1.008   ;
    46       HGA7      1    LIG   HC12     46      0.159      1.008   ;
    47       HGP2      1    LIG    HN1     47      0.301      1.008   ;
    48       HGA3      1    LIG   HC13     48      0.090      1.008   ;
    49       HGA3      1    LIG   HC14     49      0.090      1.008   ;
    50       HGA3      1    LIG   HC15     50      0.090      1.008   ;

[ bonds ]
;	ai	  aj funct			  c0			c1			  c2			c3
    1     7	 1 ;      CG3C50     CG2R53
    1     2	 1 ;      CG3C50      NG3P2
    1    20	 1 ;      CG3C50     CG2R61
    1     9	 1 ;      CG3C50     CG2R61
    2     4	 1 ;       NG3P2     CG3C53
    2     3	 1 ;       NG3P2       HGP2
    2    33	 1 ;       NG3P2       HGP2
    4    30	 1 ;      CG3C53      NG3P3
    4     5	 1 ;      CG3C53     NG2R53
    4    34	 1 ;      CG3C53       HGA1
    5     6	 1 ;      NG2R53      CG331
    5     7	 1 ;      NG2R53     CG2R53
    6    48	 1 ;       CG331       HGA3
    6    49	 1 ;       CG331       HGA3
    6    50	 1 ;       CG331       HGA3
    7     8	 1 ;      CG2R53      OG2D1
    9    15	 1 ;      CG2R61     CG2R61
    9    10	 1 ;      CG2R61     CG2R61
   10    11	 1 ;      CG2R61     CG2R61
   10    35	 1 ;      CG2R61      HGR61
   11    12	 1 ;      CG2R61     CG2R66
   11    36	 1 ;      CG2R61      HGR62
   12    14	 1 ;      CG2R66     CG2R61
   12    13	 1 ;      CG2R66       FGR1
   14    15	 1 ;      CG2R61     CG2R61
   14    16	 1 ;      CG2R61      OG301
   15    37	 1 ;      CG2R61      HGR61
   16    17	 1 ;       OG301      CG321
   17    18	 1 ;       CG321      CG322
   17    38	 1 ;       CG321       HGA2
   17    39	 1 ;       CG321       HGA2
   18    19	 1 ;       CG322       FGA1
   18    40	 1 ;       CG322       HGA6
   18    41	 1 ;       CG322       HGA6
   20    25	 1 ;      CG2R61     CG2R61
   20    21	 1 ;      CG2R61     CG2R61
   21    22	 1 ;      CG2R61     CG2R61
   21    42	 1 ;      CG2R61      HGR61
   22    23	 1 ;      CG2R61     CG2R61
   22    43	 1 ;      CG2R61      HGR61
   23    24	 1 ;      CG2R61     CG2R61
   23    26	 1 ;      CG2R61      OG301
   24    25	 1 ;      CG2R61     CG2R61
   24    44	 1 ;      CG2R61      HGR61
   25    45	 1 ;      CG2R61      HGR61
   26    27	 1 ;       OG301      CG312
   27    28	 1 ;       CG312       FGA2
   27    29	 1 ;       CG312       FGA2
   27    46	 1 ;       CG312       HGA7
   30    31	 1 ;       NG3P3       HGP2
   30    32	 1 ;       NG3P3       HGP2
   30    47	 1 ;       NG3P3       HGP2

[ pairs ]
;	ai	  aj funct			  c0			c1			  c2			c3
    1    30	 1
    1    34	 1
    1     6	 1
    1    14	 1
    1    37	 1
    1    11	 1
    1    35	 1
    1    24	 1
    1    45	 1
    1    22	 1
    1    42	 1
    2     8	 1
    2    25	 1
    2    21	 1
    2    15	 1
    2    10	 1
    2    31	 1
    2    32	 1
    2    47	 1
    2     6	 1
    3     7	 1
    3    20	 1
    3     9	 1
    3    30	 1
    3     5	 1
    3    34	 1
    4    20	 1
    4     9	 1
    4    48	 1
    4    49	 1
    4    50	 1
    4     8	 1
    5    20	 1
    5     9	 1
    5    33	 1
    5    31	 1
    5    32	 1
    5    47	 1
    6    30	 1
    6    34	 1
    6     8	 1
    7    33	 1
    7    25	 1
    7    21	 1
    7    15	 1
    7    10	 1
    7    30	 1
    7    34	 1
    7    48	 1
    7    49	 1
    7    50	 1
    8    20	 1
    8     9	 1
    9    33	 1
    9    25	 1
    9    21	 1
    9    12	 1
    9    36	 1
    9    16	 1
   10    20	 1
   10    14	 1
   10    37	 1
   10    13	 1
   11    15	 1
   11    16	 1
   12    35	 1
   12    37	 1
   12    17	 1
   13    36	 1
   13    15	 1
   13    16	 1
   14    36	 1
   14    18	 1
   14    38	 1
   14    39	 1
   15    20	 1
   15    35	 1
   15    17	 1
   16    37	 1
   16    19	 1
   16    40	 1
   16    41	 1
   19    38	 1
   19    39	 1
   20    33	 1
   20    23	 1
   20    43	 1
   20    44	 1
   21    24	 1
   21    45	 1
   21    26	 1
   22    25	 1
   22    44	 1
   22    27	 1
   23    42	 1
   23    45	 1
   23    28	 1
   23    29	 1
   23    46	 1
   24    43	 1
   24    27	 1
   25    42	 1
   25    26	 1
   26    43	 1
   26    44	 1
   30    33	 1
   31    34	 1
   32    34	 1
   33    34	 1
   34    47	 1
   35    36	 1
   38    40	 1
   38    41	 1
   39    40	 1
   39    41	 1
   42    43	 1
   44    45	 1

[ angles ]
;	ai	  aj	ak funct			c0			  c1			c2			  c3
    7     1     2	5 ;     CG2R53     CG3C50      NG3P2
    7     1    20	5 ;     CG2R53     CG3C50     CG2R61
    7     1     9	5 ;     CG2R53     CG3C50     CG2R61
    2     1    20	5 ;      NG3P2     CG3C50     CG2R61
    2     1     9	5 ;      NG3P2     CG3C50     CG2R61
   20     1     9	5 ;     CG2R61     CG3C50     CG2R61
    4     2     3	5 ;     CG3C53      NG3P2       HGP2
    4     2     1	5 ;     CG3C53      NG3P2     CG3C50
    4     2    33	5 ;     CG3C53      NG3P2       HGP2
    3     2     1	5 ;       HGP2      NG3P2     CG3C50
    3     2    33	5 ;       HGP2      NG3P2       HGP2
    1     2    33	5 ;     CG3C50      NG3P2       HGP2
   30     4     5	5 ;      NG3P3     CG3C53     NG2R53
   30     4     2	5 ;      NG3P3     CG3C53      NG3P2
   30     4    34	5 ;      NG3P3     CG3C53       HGA1
    5     4     2	5 ;     NG2R53     CG3C53      NG3P2
    5     4    34	5 ;     NG2R53     CG3C53       HGA1
    2     4    34	5 ;      NG3P2     CG3C53       HGA1
    6     5     4	5 ;      CG331     NG2R53     CG3C53
    6     5     7	5 ;      CG331     NG2R53     CG2R53
    4     5     7	5 ;     CG3C53     NG2R53     CG2R53
    5     6    48	5 ;     NG2R53      CG331       HGA3
    5     6    49	5 ;     NG2R53      CG331       HGA3
    5     6    50	5 ;     NG2R53      CG331       HGA3
   48     6    49	5 ;       HGA3      CG331       HGA3
   48     6    50	5 ;       HGA3      CG331       HGA3
   49     6    50	5 ;       HGA3      CG331       HGA3
    5     7     8	5 ;     NG2R53     CG2R53      OG2D1
    5     7     1	5 ;     NG2R53     CG2R53     CG3C50
    8     7     1	5 ;      OG2D1     CG2R53     CG3C50
    1     9    15	5 ;     CG3C50     CG2R61     CG2R61
    1     9    10	5 ;     CG3C50     CG2R61     CG2R61
   15     9    10	5 ;     CG2R61     CG2R61     CG2R61
    9    10    11	5 ;     CG2R61     CG2R61     CG2R61
    9    10    35	5 ;     CG2R61     CG2R61      HGR61
   11    10    35	5 ;     CG2R61     CG2R61      HGR61
   10    11    12	5 ;     CG2R61     CG2R61     CG2R66
   10    11    36	5 ;     CG2R61     CG2R61      HGR62
   12    11    36	5 ;     CG2R66     CG2R61      HGR62
   14    12    11	5 ;     CG2R61     CG2R66     CG2R61
   14    12    13	5 ;     CG2R61     CG2R66       FGR1
   11    12    13	5 ;     CG2R61     CG2R66       FGR1
   15    14    16	5 ;     CG2R61     CG2R61      OG301
   15    14    12	5 ;     CG2R61     CG2R61     CG2R66
   16    14    12	5 ;      OG301     CG2R61     CG2R66
    9    15    14	5 ;     CG2R61     CG2R61     CG2R61
    9    15    37	5 ;     CG2R61     CG2R61      HGR61
   14    15    37	5 ;     CG2R61     CG2R61      HGR61
   17    16    14	5 ;      CG321      OG301     CG2R61
   18    17    16	5 ;      CG322      CG321      OG301
   18    17    38	5 ;      CG322      CG321       HGA2
   18    17    39	5 ;      CG322      CG321       HGA2
   16    17    38	5 ;      OG301      CG321       HGA2
   16    17    39	5 ;      OG301      CG321       HGA2
   38    17    39	5 ;       HGA2      CG321       HGA2
   17    18    19	5 ;      CG321      CG322       FGA1
   17    18    40	5 ;      CG321      CG322       HGA6
   17    18    41	5 ;      CG321      CG322       HGA6
   19    18    40	5 ;       FGA1      CG322       HGA6
   19    18    41	5 ;       FGA1      CG322       HGA6
   40    18    41	5 ;       HGA6      CG322       HGA6
   25    20     1	5 ;     CG2R61     CG2R61     CG3C50
   25    20    21	5 ;     CG2R61     CG2R61     CG2R61
    1    20    21	5 ;     CG3C50     CG2R61     CG2R61
   20    21    22	5 ;     CG2R61     CG2R61     CG2R61
   20    21    42	5 ;     CG2R61     CG2R61      HGR61
   22    21    42	5 ;     CG2R61     CG2R61      HGR61
   21    22    23	5 ;     CG2R61     CG2R61     CG2R61
   21    22    43	5 ;     CG2R61     CG2R61      HGR61
   23    22    43	5 ;     CG2R61     CG2R61      HGR61
   24    23    22	5 ;     CG2R61     CG2R61     CG2R61
   24    23    26	5 ;     CG2R61     CG2R61      OG301
   22    23    26	5 ;     CG2R61     CG2R61      OG301
   25    24    23	5 ;     CG2R61     CG2R61     CG2R61
   25    24    44	5 ;     CG2R61     CG2R61      HGR61
   23    24    44	5 ;     CG2R61     CG2R61      HGR61
   20    25    24	5 ;     CG2R61     CG2R61     CG2R61
   20    25    45	5 ;     CG2R61     CG2R61      HGR61
   24    25    45	5 ;     CG2R61     CG2R61      HGR61
   27    26    23	5 ;      CG312      OG301     CG2R61
   28    27    29	5 ;       FGA2      CG312       FGA2
   28    27    26	5 ;       FGA2      CG312      OG301
   28    27    46	5 ;       FGA2      CG312       HGA7
   29    27    26	5 ;       FGA2      CG312      OG301
   29    27    46	5 ;       FGA2      CG312       HGA7
   26    27    46	5 ;      OG301      CG312       HGA7
   31    30    32	5 ;       HGP2      NG3P3       HGP2
   31    30     4	5 ;       HGP2      NG3P3     CG3C53
   31    30    47	5 ;       HGP2      NG3P3       HGP2
   32    30     4	5 ;       HGP2      NG3P3     CG3C53
   32    30    47	5 ;       HGP2      NG3P3       HGP2
    4    30    47	5 ;     CG3C53      NG3P3       HGP2

[ dihedrals ]
;	ai	  aj	ak	  al funct			  c0			c1			  c2			c3			  c4			c5
    2     1     7     5	 9 ;      NG3P2     CG3C50     CG2R53     NG2R53
    2     1     7     8	 9 ;      NG3P2     CG3C50     CG2R53      OG2D1
   20     1     7     5	 9 ;     CG2R61     CG3C50     CG2R53     NG2R53
   20     1     7     8	 9 ;     CG2R61     CG3C50     CG2R53      OG2D1
    9     1     7     5	 9 ;     CG2R61     CG3C50     CG2R53     NG2R53
    9     1     7     8	 9 ;     CG2R61     CG3C50     CG2R53      OG2D1
    7     1     2     4	 9 ;     CG2R53     CG3C50      NG3P2     CG3C53
    7     1     2     3	 9 ;     CG2R53     CG3C50      NG3P2       HGP2
    7     1     2    33	 9 ;     CG2R53     CG3C50      NG3P2       HGP2
   20     1     2     4	 9 ;     CG2R61     CG3C50      NG3P2     CG3C53
   20     1     2     3	 9 ;     CG2R61     CG3C50      NG3P2       HGP2
   20     1     2    33	 9 ;     CG2R61     CG3C50      NG3P2       HGP2
    9     1     2     4	 9 ;     CG2R61     CG3C50      NG3P2     CG3C53
    9     1     2     3	 9 ;     CG2R61     CG3C50      NG3P2       HGP2
    9     1     2    33	 9 ;     CG2R61     CG3C50      NG3P2       HGP2
    7     1    20    25	 9 ;     CG2R53     CG3C50     CG2R61     CG2R61
    7     1    20    21	 9 ;     CG2R53     CG3C50     CG2R61     CG2R61
    2     1    20    25	 9 ;      NG3P2     CG3C50     CG2R61     CG2R61
    2     1    20    21	 9 ;      NG3P2     CG3C50     CG2R61     CG2R61
    9     1    20    25	 9 ;     CG2R61     CG3C50     CG2R61     CG2R61
    9     1    20    21	 9 ;     CG2R61     CG3C50     CG2R61     CG2R61
    7     1     9    15	 9 ;     CG2R53     CG3C50     CG2R61     CG2R61
    7     1     9    10	 9 ;     CG2R53     CG3C50     CG2R61     CG2R61
    2     1     9    15	 9 ;      NG3P2     CG3C50     CG2R61     CG2R61
    2     1     9    10	 9 ;      NG3P2     CG3C50     CG2R61     CG2R61
   20     1     9    15	 9 ;     CG2R61     CG3C50     CG2R61     CG2R61
   20     1     9    10	 9 ;     CG2R61     CG3C50     CG2R61     CG2R61
    3     2     4    30	 9 ;       HGP2      NG3P2     CG3C53      NG3P3
    3     2     4     5	 9 ;       HGP2      NG3P2     CG3C53     NG2R53
    3     2     4    34	 9 ;       HGP2      NG3P2     CG3C53       HGA1
    1     2     4    30	 9 ;     CG3C50      NG3P2     CG3C53      NG3P3
    1     2     4     5	 9 ;     CG3C50      NG3P2     CG3C53     NG2R53
    1     2     4    34	 9 ;     CG3C50      NG3P2     CG3C53       HGA1
   33     2     4    30	 9 ;       HGP2      NG3P2     CG3C53      NG3P3
   33     2     4     5	 9 ;       HGP2      NG3P2     CG3C53     NG2R53
   33     2     4    34	 9 ;       HGP2      NG3P2     CG3C53       HGA1
    5     4    30    31	 9 ;     NG2R53     CG3C53      NG3P3       HGP2
    5     4    30    32	 9 ;     NG2R53     CG3C53      NG3P3       HGP2
    5     4    30    47	 9 ;     NG2R53     CG3C53      NG3P3       HGP2
    2     4    30    31	 9 ;      NG3P2     CG3C53      NG3P3       HGP2
    2     4    30    32	 9 ;      NG3P2     CG3C53      NG3P3       HGP2
    2     4    30    47	 9 ;      NG3P2     CG3C53      NG3P3       HGP2
   34     4    30    31	 9 ;       HGA1     CG3C53      NG3P3       HGP2
   34     4    30    32	 9 ;       HGA1     CG3C53      NG3P3       HGP2
   34     4    30    47	 9 ;       HGA1     CG3C53      NG3P3       HGP2
   30     4     5     6	 9 ;      NG3P3     CG3C53     NG2R53      CG331
   30     4     5     7	 9 ;      NG3P3     CG3C53     NG2R53     CG2R53
    2     4     5     6	 9 ;      NG3P2     CG3C53     NG2R53      CG331
    2     4     5     7	 9 ;      NG3P2     CG3C53     NG2R53     CG2R53
   34     4     5     6	 9 ;       HGA1     CG3C53     NG2R53      CG331
   34     4     5     7	 9 ;       HGA1     CG3C53     NG2R53     CG2R53
    4     5     6    48	 9 ;     CG3C53     NG2R53      CG331       HGA3
    4     5     6    49	 9 ;     CG3C53     NG2R53      CG331       HGA3
    4     5     6    50	 9 ;     CG3C53     NG2R53      CG331       HGA3
    7     5     6    48	 9 ;     CG2R53     NG2R53      CG331       HGA3
    7     5     6    49	 9 ;     CG2R53     NG2R53      CG331       HGA3
    7     5     6    50	 9 ;     CG2R53     NG2R53      CG331       HGA3
    6     5     7     8	 9 ;      CG331     NG2R53     CG2R53      OG2D1
    6     5     7     1	 9 ;      CG331     NG2R53     CG2R53     CG3C50
    4     5     7     8	 9 ;     CG3C53     NG2R53     CG2R53      OG2D1
    4     5     7     1	 9 ;     CG3C53     NG2R53     CG2R53     CG3C50
    1     9    15    14	 9 ;     CG3C50     CG2R61     CG2R61     CG2R61
    1     9    15    37	 9 ;     CG3C50     CG2R61     CG2R61      HGR61
   10     9    15    14	 9 ;     CG2R61     CG2R61     CG2R61     CG2R61
   10     9    15    37	 9 ;     CG2R61     CG2R61     CG2R61      HGR61
    1     9    10    11	 9 ;     CG3C50     CG2R61     CG2R61     CG2R61
    1     9    10    35	 9 ;     CG3C50     CG2R61     CG2R61      HGR61
   15     9    10    11	 9 ;     CG2R61     CG2R61     CG2R61     CG2R61
   15     9    10    35	 9 ;     CG2R61     CG2R61     CG2R61      HGR61
    9    10    11    12	 9 ;     CG2R61     CG2R61     CG2R61     CG2R66
    9    10    11    36	 9 ;     CG2R61     CG2R61     CG2R61      HGR62
   35    10    11    12	 9 ;      HGR61     CG2R61     CG2R61     CG2R66
   35    10    11    36	 9 ;      HGR61     CG2R61     CG2R61      HGR62
   10    11    12    14	 9 ;     CG2R61     CG2R61     CG2R66     CG2R61
   10    11    12    13	 9 ;     CG2R61     CG2R61     CG2R66       FGR1
   36    11    12    14	 9 ;      HGR62     CG2R61     CG2R66     CG2R61
   36    11    12    13	 9 ;      HGR62     CG2R61     CG2R66       FGR1
   11    12    14    15	 9 ;     CG2R61     CG2R66     CG2R61     CG2R61
   11    12    14    16	 9 ;     CG2R61     CG2R66     CG2R61      OG301
   13    12    14    15	 9 ;       FGR1     CG2R66     CG2R61     CG2R61
   13    12    14    16	 9 ;       FGR1     CG2R66     CG2R61      OG301
   16    14    15     9	 9 ;      OG301     CG2R61     CG2R61     CG2R61
   16    14    15    37	 9 ;      OG301     CG2R61     CG2R61      HGR61
   12    14    15     9	 9 ;     CG2R66     CG2R61     CG2R61     CG2R61
   12    14    15    37	 9 ;     CG2R66     CG2R61     CG2R61      HGR61
   15    14    16    17	 9 ;     CG2R61     CG2R61      OG301      CG321
   12    14    16    17	 9 ;     CG2R66     CG2R61      OG301      CG321
   14    16    17    18	 9 ;     CG2R61      OG301      CG321      CG322
   14    16    17    38	 9 ;     CG2R61      OG301      CG321       HGA2
   14    16    17    39	 9 ;     CG2R61      OG301      CG321       HGA2
   16    17    18    19	 9 ;      OG301      CG321      CG322       FGA1
   16    17    18    40	 9 ;      OG301      CG321      CG322       HGA6
   16    17    18    41	 9 ;      OG301      CG321      CG322       HGA6
   38    17    18    19	 9 ;       HGA2      CG321      CG322       FGA1
   38    17    18    40	 9 ;       HGA2      CG321      CG322       HGA6
   38    17    18    41	 9 ;       HGA2      CG321      CG322       HGA6
   39    17    18    19	 9 ;       HGA2      CG321      CG322       FGA1
   39    17    18    40	 9 ;       HGA2      CG321      CG322       HGA6
   39    17    18    41	 9 ;       HGA2      CG321      CG322       HGA6
    1    20    25    24	 9 ;     CG3C50     CG2R61     CG2R61     CG2R61
    1    20    25    45	 9 ;     CG3C50     CG2R61     CG2R61      HGR61
   21    20    25    24	 9 ;     CG2R61     CG2R61     CG2R61     CG2R61
   21    20    25    45	 9 ;     CG2R61     CG2R61     CG2R61      HGR61
   25    20    21    22	 9 ;     CG2R61     CG2R61     CG2R61     CG2R61
   25    20    21    42	 9 ;     CG2R61     CG2R61     CG2R61      HGR61
    1    20    21    22	 9 ;     CG3C50     CG2R61     CG2R61     CG2R61
    1    20    21    42	 9 ;     CG3C50     CG2R61     CG2R61      HGR61
   20    21    22    23	 9 ;     CG2R61     CG2R61     CG2R61     CG2R61
   20    21    22    43	 9 ;     CG2R61     CG2R61     CG2R61      HGR61
   42    21    22    23	 9 ;      HGR61     CG2R61     CG2R61     CG2R61
   42    21    22    43	 9 ;      HGR61     CG2R61     CG2R61      HGR61
   21    22    23    24	 9 ;     CG2R61     CG2R61     CG2R61     CG2R61
   21    22    23    26	 9 ;     CG2R61     CG2R61     CG2R61      OG301
   43    22    23    24	 9 ;      HGR61     CG2R61     CG2R61     CG2R61
   43    22    23    26	 9 ;      HGR61     CG2R61     CG2R61      OG301
   22    23    24    25	 9 ;     CG2R61     CG2R61     CG2R61     CG2R61
   22    23    24    44	 9 ;     CG2R61     CG2R61     CG2R61      HGR61
   26    23    24    25	 9 ;      OG301     CG2R61     CG2R61     CG2R61
   26    23    24    44	 9 ;      OG301     CG2R61     CG2R61      HGR61
   24    23    26    27	 9 ;     CG2R61     CG2R61      OG301      CG312
   22    23    26    27	 9 ;     CG2R61     CG2R61      OG301      CG312
   23    24    25    20	 9 ;     CG2R61     CG2R61     CG2R61     CG2R61
   23    24    25    45	 9 ;     CG2R61     CG2R61     CG2R61      HGR61
   44    24    25    20	 9 ;      HGR61     CG2R61     CG2R61     CG2R61
   44    24    25    45	 9 ;      HGR61     CG2R61     CG2R61      HGR61
   23    26    27    28	 9 ;     CG2R61      OG301      CG312       FGA2
   23    26    27    29	 9 ;     CG2R61      OG301      CG312       FGA2
   23    26    27    46	 9 ;     CG2R61      OG301      CG312       HGA7

[ dihedrals ]
;	ai	  aj	ak	  al funct			  c0			c1			  c2			c3
    7     1     5     8	 2

