GROwing Monsters And Cloning Shrimps
   50
    1LIG     C1    1  -1.411   0.428  -1.566
    1LIG     N1    2  -1.428   0.345  -1.691
    1LIG     HN    3  -1.502   0.278  -1.712
    1LIG     C2    4  -1.329   0.376  -1.768
    1LIG     N2    5  -1.250   0.477  -1.727
    1LIG     C3    6  -1.126   0.521  -1.786
    1LIG     C4    7  -1.300   0.526  -1.610
    1LIG     O1    8  -1.257   0.624  -1.550
    1LIG     C5    9  -1.545   0.493  -1.528
    1LIG     C6   10  -1.639   0.421  -1.451
    1LIG     C7   11  -1.758   0.481  -1.408
    1LIG     C8   12  -1.785   0.613  -1.439
    1LIG     F1   13  -1.901   0.667  -1.396
    1LIG     C9   14  -1.695   0.688  -1.514
    1LIG    C10   15  -1.577   0.627  -1.559
    1LIG     O2   16  -1.709   0.818  -1.553
    1LIG    C11   17  -1.592   0.883  -1.605
    1LIG    C12   18  -1.637   1.001  -1.690
    1LIG     F2   19  -1.622   1.116  -1.618
    1LIG    C13   20  -1.353   0.341  -1.452
    1LIG    C14   21  -1.306   0.399  -1.332
    1LIG    C15   22  -1.271   0.321  -1.222
    1LIG    C16   23  -1.283   0.182  -1.228
    1LIG    C17   24  -1.322   0.123  -1.348
    1LIG    C18   25  -1.357   0.201  -1.458
    1LIG     O3   26  -1.258   0.096  -1.125
    1LIG    C19   27  -1.194  -0.025  -1.163
    1LIG     F3   28  -1.061  -0.001  -1.170
    1LIG     F4   29  -1.212  -0.116  -1.064
    1LIG     N3   30  -1.307   0.312  -1.885
    1LIG     H1   31  -1.258   0.224  -1.873
    1LIG     H2   32  -1.384   0.306  -1.951
    1LIG    HN2   33  -1.372   0.271  -1.650
    1LIG     HC   34  -1.265   0.304  -1.717
    1LIG    HC1   35  -1.619   0.319  -1.424
    1LIG    HC2   36  -1.830   0.424  -1.350
    1LIG    HC3   37  -1.508   0.684  -1.620
    1LIG    HC4   38  -1.530   0.918  -1.523
    1LIG    HC5   39  -1.536   0.813  -1.667
    1LIG    HC6   40  -1.576   1.006  -1.780
    1LIG    HC7   41  -1.742   0.989  -1.717
    1LIG    HC8   42  -1.295   0.506  -1.326
    1LIG    HC9   43  -1.236   0.368  -1.131
    1LIG   HC10   44  -1.324   0.015  -1.356
    1LIG   HC11   45  -1.388   0.153  -1.550
    1LIG   HC12   46  -1.233  -0.062  -1.258
    1LIG    HN1   47  -1.240   0.371  -1.933
    1LIG   HC13   48  -1.075   0.590  -1.717
    1LIG   HC14   49  -1.061   0.435  -1.805
    1LIG   HC15   50  -1.146   0.573  -1.880
   0.00000   0.00000   0.00000
