Gnomes, ROck Monsters And Chili Sauce
   45
    1LIG     C1    1   2.017   3.856  -1.664
    1LIG     O5    2   1.848   3.744  -1.850
    1LIG     C3    3   1.852   3.934  -1.990
    1LIG     C4    4   1.905   4.062  -2.014
    1LIG     C5    5   1.770   3.874  -2.086
    1LIG     C6    6   1.877   4.127  -2.135
    1LIG     C7    7   1.741   3.939  -2.205
    1LIG     C8    8   1.795   4.065  -2.229
    1LIG     C9    9   1.960   3.934  -1.758
    1LIG    C10   10   1.962   4.084  -1.771
    1LIG    C11   11   1.883   3.860  -1.865
    1LIG    C12   12   1.996   4.127  -1.913
    1LIG     N1   13   2.020   3.929  -1.438
    1LIG     O4   14   2.218   3.919  -1.552
    1LIG     C2   15   2.097   3.904  -1.549
    1LIG     H2   16   1.920   3.938  -1.449
    1LIG    C13   17   2.078   3.993  -1.319
    1LIG    C15   18   2.023   3.929  -1.190
    1LIG    C16   19   2.017   4.032  -1.075
    1LIG    C17   20   1.883   3.870  -1.210
    1LIG     O2   21   1.929   4.183  -1.359
    1LIG    C14   22   2.040   4.142  -1.327
    1LIG     O3   23   2.145   4.221  -1.291
    1LIG    C18   24   2.269   4.185  -1.352
    1LIG     O1   25   1.765   4.125  -2.348
    1LIG     H1   26   1.684   4.086  -2.384
    1LIG     H3   27   2.003   3.754  -1.673
    1LIG     H4   28   1.730   3.780  -2.068
    1LIG     H5   29   1.917   4.220  -2.155
    1LIG     H6   30   1.680   3.895  -2.276
    1LIG     H7   31   1.865   4.122  -1.745
    1LIG     H8   32   2.036   4.122  -1.705
    1LIG     H9   33   1.987   4.233  -1.921
    1LIG    H10   34   2.097   4.096  -1.934
    1LIG    H11   35   2.184   3.981  -1.316
    1LIG    H12   36   2.091   3.851  -1.164
    1LIG    H13   37   1.949   4.110  -1.102
    1LIG    H14   38   2.115   4.073  -1.059
    1LIG    H15   39   1.983   3.984  -0.986
    1LIG    H16   40   1.815   3.948  -1.236
    1LIG    H17   41   1.851   3.822  -1.120
    1LIG    H18   42   1.887   3.797  -1.289
    1LIG    H19   43   2.346   4.251  -1.318
    1LIG    H20   44   2.260   4.192  -1.458
    1LIG    H21   45   2.294   4.084  -1.325
   0.00000   0.00000   0.00000
