Gravel Rubs Often Many Awfully Cauterized Sores
   63
    1LIG     C1    1  -1.749   0.799  -1.615
    1LIG     C2    2  -1.815   0.660  -1.626
    1LIG     N1    3  -1.776   0.586  -1.499
    1LIG     H1    4  -1.676   0.608  -1.483
    1LIG     H2    5  -1.826   0.627  -1.419
    1LIG     C3    6  -1.791   0.439  -1.497
    1LIG     C4    7  -1.932   0.385  -1.495
    1LIG     C5    8  -1.850   0.381  -1.370
    1LIG     C6    9  -1.676   0.364  -1.560
    1LIG     C7   10  -1.548   0.364  -1.503
    1LIG     C8   11  -1.444   0.284  -1.552
    1LIG     C9   12  -1.469   0.207  -1.667
    1LIG    C10   13  -1.594   0.208  -1.728
    1LIG    C11   14  -1.696   0.286  -1.675
    1LIG    C12   15  -1.307   0.283  -1.486
    1LIG    C13   16  -1.289   0.380  -1.370
    1LIG    C14   17  -1.168   0.324  -1.299
    1LIG     O1   18  -1.170   0.183  -1.319
    1LIG    C15   19  -1.268   0.152  -1.419
    1LIG     O2   20  -1.749   0.835  -1.476
    1LIG     H3   21  -1.657   0.841  -1.445
    1LIG    C16   22  -1.611   0.812  -1.684
    1LIG     N2   23  -1.605   0.940  -1.755
    1LIG    C17   24  -1.545   0.953  -1.878
    1LIG     O3   25  -1.507   0.856  -1.943
    1LIG    C18   26  -1.543   1.094  -1.929
    1LIG     H4   27  -1.627   1.025  -1.705
    1LIG    C19   28  -1.495   0.806  -1.580
    1LIG    C20   29  -1.385   0.709  -1.619
    1LIG    C21   30  -1.260   0.712  -1.554
    1LIG    C22   31  -1.157   0.628  -1.596
    1LIG     F1   32  -1.038   0.636  -1.534
    1LIG    C23   33  -1.174   0.538  -1.700
    1LIG    C24   34  -1.299   0.531  -1.761
    1LIG    C25   35  -1.404   0.615  -1.721
    1LIG     F2   36  -1.318   0.445  -1.861
    1LIG     HC   37  -1.816   0.869  -1.665
    1LIG    HC2   38  -1.924   0.670  -1.632
    1LIG    HC3   39  -1.777   0.607  -1.713
    1LIG    HC4   40  -1.956   0.293  -1.547
    1LIG    HC5   41  -2.011   0.461  -1.496
    1LIG    HC6   42  -1.875   0.447  -1.286
    1LIG    HC7   43  -1.812   0.283  -1.342
    1LIG    HC1   44  -1.529   0.428  -1.418
    1LIG    HC8   45  -1.390   0.146  -1.708
    1LIG    HC9   46  -1.611   0.149  -1.817
    1LIG   HC10   47  -1.793   0.286  -1.723
    1LIG   HC11   48  -1.233   0.306  -1.562
    1LIG   HC12   49  -1.270   0.481  -1.407
    1LIG   HC13   50  -1.376   0.378  -1.305
    1LIG   HC14   51  -1.173   0.348  -1.193
    1LIG   HC15   52  -1.077   0.366  -1.342
    1LIG   HC16   53  -1.225   0.083  -1.492
    1LIG   HC17   54  -1.355   0.106  -1.372
    1LIG   HC18   55  -1.599   0.731  -1.755
    1LIG   HC19   56  -1.493   1.097  -2.026
    1LIG   HC20   57  -1.645   1.131  -1.939
    1LIG   HC21   58  -1.488   1.158  -1.859
    1LIG   HC22   59  -1.452   0.905  -1.571
    1LIG   HC23   60  -1.536   0.776  -1.484
    1LIG   HC24   61  -1.244   0.781  -1.472
    1LIG   HC25   62  -1.093   0.475  -1.732
    1LIG   HC26   63  -1.500   0.606  -1.769
   0.00000   0.00000   0.00000
