; Created by cgenff_charmm2gmx.py

[ moleculetype ]
; Name			   nrexcl
LIG				 3

[ atoms ]
;	 nr		  type	resnr residue  atom   cgnr	   charge		mass  typeB    chargeB		massB
; residue	 1 LIG rtp LIG q	qsum
     1      CG311      1    LIG     C1      1      0.093     12.011   ;
     2      CG324      1    LIG     C2      2      0.186     12.011   ;
     3      NG3P2      1    LIG     N1      3     -0.483     14.007   ;
     4       HGP2      1    LIG     H1      4      0.343      1.008   ;
     5       HGP2      1    LIG     H2      5      0.343      1.008   ;
     6     CG3C31      1    LIG     C3      6      0.393     12.011   ;
     7     CG3C31      1    LIG     C4      7     -0.149     12.011   ;
     8     CG3C31      1    LIG     C5      8     -0.149     12.011   ;
     9     CG2R61      1    LIG     C6      9     -0.099     12.011   ;
    10     CG2R61      1    LIG     C7     10     -0.081     12.011   ;
    11     CG2R61      1    LIG     C8     11     -0.104     12.011   ;
    12     CG2R61      1    LIG     C9     12     -0.120     12.011   ;
    13     CG2R61      1    LIG    C10     13     -0.112     12.011   ;
    14     CG2R61      1    LIG    C11     14     -0.077     12.011   ;
    15     CG3C51      1    LIG    C12     15      0.028     12.011   ;
    16     CG3C52      1    LIG    C13     16     -0.171     12.011   ;
    17     CG3C52      1    LIG    C14     17      0.031     12.011   ;
    18     OG3C51      1    LIG     O1     18     -0.417     15.999   ;
    19     CG3C52      1    LIG    C15     19      0.003     12.011   ;
    20      OG311      1    LIG     O2     20     -0.625     15.999   ;
    21       HGP1      1    LIG     H3     21      0.415      1.008   ;
    22      CG311      1    LIG    C16     22     -0.007     12.011   ;
    23      NG2S1      1    LIG     N2     23     -0.339     14.007   ;
    24      CG2O1      1    LIG    C17     24      0.488     12.011   ;
    25      OG2D1      1    LIG     O3     25     -0.509     15.999   ;
    26      CG331      1    LIG    C18     26     -0.270     12.011   ;
    27       HGP1      1    LIG     H4     27      0.261      1.008   ;
    28      CG321      1    LIG    C19     28     -0.153     12.011   ;
    29     CG2R61      1    LIG    C20     29      0.057     12.011   ;
    30     CG2R61      1    LIG    C21     30     -0.218     12.011   ;
    31     CG2R66      1    LIG    C22     31      0.261     12.011   ;
    32       FGR1      1    LIG     F1     32     -0.210     18.998   ;
    33     CG2R61      1    LIG    C23     33     -0.240     12.011   ;
    34     CG2R66      1    LIG    C24     34      0.261     12.011   ;
    35     CG2R61      1    LIG    C25     35     -0.218     12.011   ;
    36       FGR1      1    LIG     F2     36     -0.210     18.998   ;
    37       HGA1      1    LIG     HC     37      0.090      1.008   ;
    38       HGA2      1    LIG    HC2     38      0.090      1.008   ;
    39       HGA2      1    LIG    HC3     39      0.090      1.008   ;
    40       HGA2      1    LIG    HC4     40      0.090      1.008   ;
    41       HGA2      1    LIG    HC5     41      0.090      1.008   ;
    42       HGA2      1    LIG    HC6     42      0.090      1.008   ;
    43       HGA2      1    LIG    HC7     43      0.090      1.008   ;
    44      HGR61      1    LIG    HC1     44      0.116      1.008   ;
    45      HGR61      1    LIG    HC8     45      0.116      1.008   ;
    46      HGR61      1    LIG    HC9     46      0.116      1.008   ;
    47      HGR61      1    LIG   HC10     47      0.116      1.008   ;
    48       HGA1      1    LIG   HC11     48      0.090      1.008   ;
    49       HGA2      1    LIG   HC12     49      0.090      1.008   ;
    50       HGA2      1    LIG   HC13     50      0.090      1.008   ;
    51       HGA2      1    LIG   HC14     51      0.090      1.008   ;
    52       HGA2      1    LIG   HC15     52      0.090      1.008   ;
    53       HGA2      1    LIG   HC16     53      0.090      1.008   ;
    54       HGA2      1    LIG   HC17     54      0.090      1.008   ;
    55       HGA1      1    LIG   HC18     55      0.090      1.008   ;
    56       HGA3      1    LIG   HC19     56      0.090      1.008   ;
    57       HGA3      1    LIG   HC20     57      0.090      1.008   ;
    58       HGA3      1    LIG   HC21     58      0.090      1.008   ;
    59       HGA2      1    LIG   HC22     59      0.090      1.008   ;
    60       HGA2      1    LIG   HC23     60      0.090      1.008   ;
    61      HGR62      1    LIG   HC24     61      0.174      1.008   ;
    62      HGR62      1    LIG   HC25     62      0.186      1.008   ;
    63      HGR62      1    LIG   HC26     63      0.174      1.008   ;

[ bonds ]
;	ai	  aj funct			  c0			c1			  c2			c3
    1    22	 1 ;       CG311      CG311
    1    20	 1 ;       CG311      OG311
    1     2	 1 ;       CG311      CG324
    1    37	 1 ;       CG311       HGA1
    2     3	 1 ;       CG324      NG3P2
    2    38	 1 ;       CG324       HGA2
    2    39	 1 ;       CG324       HGA2
    3     4	 1 ;       NG3P2       HGP2
    3     6	 1 ;       NG3P2     CG3C31
    3     5	 1 ;       NG3P2       HGP2
    6     9	 1 ;      CG3C31     CG2R61
    6     7	 1 ;      CG3C31     CG3C31
    6     8	 1 ;      CG3C31     CG3C31
    7     8	 1 ;      CG3C31     CG3C31
    7    40	 1 ;      CG3C31       HGA2
    7    41	 1 ;      CG3C31       HGA2
    8    42	 1 ;      CG3C31       HGA2
    8    43	 1 ;      CG3C31       HGA2
    9    10	 1 ;      CG2R61     CG2R61
    9    14	 1 ;      CG2R61     CG2R61
   10    11	 1 ;      CG2R61     CG2R61
   10    44	 1 ;      CG2R61      HGR61
   11    15	 1 ;      CG2R61     CG3C51
   11    12	 1 ;      CG2R61     CG2R61
   12    13	 1 ;      CG2R61     CG2R61
   12    45	 1 ;      CG2R61      HGR61
   13    14	 1 ;      CG2R61     CG2R61
   13    46	 1 ;      CG2R61      HGR61
   14    47	 1 ;      CG2R61      HGR61
   15    16	 1 ;      CG3C51     CG3C52
   15    19	 1 ;      CG3C51     CG3C52
   15    48	 1 ;      CG3C51       HGA1
   16    17	 1 ;      CG3C52     CG3C52
   16    49	 1 ;      CG3C52       HGA2
   16    50	 1 ;      CG3C52       HGA2
   17    18	 1 ;      CG3C52     OG3C51
   17    51	 1 ;      CG3C52       HGA2
   17    52	 1 ;      CG3C52       HGA2
   18    19	 1 ;      OG3C51     CG3C52
   19    53	 1 ;      CG3C52       HGA2
   19    54	 1 ;      CG3C52       HGA2
   20    21	 1 ;       OG311       HGP1
   22    23	 1 ;       CG311      NG2S1
   22    28	 1 ;       CG311      CG321
   22    55	 1 ;       CG311       HGA1
   23    24	 1 ;       NG2S1      CG2O1
   23    27	 1 ;       NG2S1       HGP1
   24    26	 1 ;       CG2O1      CG331
   24    25	 1 ;       CG2O1      OG2D1
   26    56	 1 ;       CG331       HGA3
   26    57	 1 ;       CG331       HGA3
   26    58	 1 ;       CG331       HGA3
   28    29	 1 ;       CG321     CG2R61
   28    59	 1 ;       CG321       HGA2
   28    60	 1 ;       CG321       HGA2
   29    30	 1 ;      CG2R61     CG2R61
   29    35	 1 ;      CG2R61     CG2R61
   30    31	 1 ;      CG2R61     CG2R66
   30    61	 1 ;      CG2R61      HGR62
   31    32	 1 ;      CG2R66       FGR1
   31    33	 1 ;      CG2R66     CG2R61
   33    34	 1 ;      CG2R61     CG2R66
   33    62	 1 ;      CG2R61      HGR62
   34    36	 1 ;      CG2R66       FGR1
   34    35	 1 ;      CG2R66     CG2R61
   35    63	 1 ;      CG2R61      HGR62

[ pairs ]
;	ai	  aj funct			  c0			c1			  c2			c3
    1     4	 1
    1     6	 1
    1     5	 1
    1    24	 1
    1    27	 1
    1    29	 1
    1    59	 1
    1    60	 1
    2    23	 1
    2    28	 1
    2    55	 1
    2    21	 1
    2     9	 1
    2     7	 1
    2     8	 1
    3    22	 1
    3    20	 1
    3    37	 1
    3    10	 1
    3    14	 1
    3    40	 1
    3    41	 1
    3    42	 1
    3    43	 1
    4    38	 1
    4    39	 1
    4     9	 1
    4     7	 1
    4     8	 1
    5    38	 1
    5    39	 1
    5     9	 1
    5     7	 1
    5     8	 1
    6    38	 1
    6    39	 1
    6    11	 1
    6    44	 1
    6    13	 1
    6    47	 1
    7    10	 1
    7    14	 1
    8    10	 1
    8    14	 1
    9    40	 1
    9    41	 1
    9    42	 1
    9    43	 1
    9    15	 1
    9    12	 1
    9    46	 1
   10    13	 1
   10    47	 1
   10    16	 1
   10    19	 1
   10    48	 1
   10    45	 1
   11    14	 1
   11    46	 1
   11    17	 1
   11    49	 1
   11    50	 1
   11    18	 1
   11    53	 1
   11    54	 1
   12    44	 1
   12    16	 1
   12    19	 1
   12    48	 1
   12    47	 1
   13    15	 1
   14    44	 1
   14    45	 1
   15    44	 1
   15    45	 1
   15    51	 1
   15    52	 1
   16    53	 1
   16    54	 1
   17    48	 1
   17    53	 1
   17    54	 1
   18    48	 1
   18    49	 1
   18    50	 1
   19    49	 1
   19    50	 1
   19    51	 1
   19    52	 1
   20    23	 1
   20    28	 1
   20    55	 1
   20    38	 1
   20    39	 1
   21    22	 1
   21    37	 1
   22    38	 1
   22    39	 1
   22    26	 1
   22    25	 1
   22    30	 1
   22    35	 1
   23    37	 1
   23    29	 1
   23    59	 1
   23    60	 1
   23    56	 1
   23    57	 1
   23    58	 1
   24    28	 1
   24    55	 1
   25    27	 1
   25    56	 1
   25    57	 1
   25    58	 1
   26    27	 1
   27    28	 1
   27    55	 1
   28    37	 1
   28    31	 1
   28    61	 1
   28    34	 1
   28    63	 1
   29    55	 1
   29    32	 1
   29    33	 1
   29    36	 1
   30    59	 1
   30    60	 1
   30    34	 1
   30    63	 1
   30    62	 1
   31    35	 1
   31    36	 1
   32    61	 1
   32    34	 1
   32    62	 1
   33    61	 1
   33    63	 1
   35    59	 1
   35    60	 1
   35    61	 1
   35    62	 1
   36    62	 1
   36    63	 1
   37    55	 1
   37    38	 1
   37    39	 1
   40    42	 1
   40    43	 1
   41    42	 1
   41    43	 1
   45    46	 1
   46    47	 1
   48    49	 1
   48    50	 1
   48    53	 1
   48    54	 1
   49    51	 1
   49    52	 1
   50    51	 1
   50    52	 1
   55    59	 1
   55    60	 1

[ angles ]
;	ai	  aj	ak funct			c0			  c1			c2			  c3
   22     1    20	5 ;      CG311      CG311      OG311
   22     1     2	5 ;      CG311      CG311      CG324
   22     1    37	5 ;      CG311      CG311       HGA1
   20     1     2	5 ;      OG311      CG311      CG324
   20     1    37	5 ;      OG311      CG311       HGA1
    2     1    37	5 ;      CG324      CG311       HGA1
    1     2     3	5 ;      CG311      CG324      NG3P2
    1     2    38	5 ;      CG311      CG324       HGA2
    1     2    39	5 ;      CG311      CG324       HGA2
    3     2    38	5 ;      NG3P2      CG324       HGA2
    3     2    39	5 ;      NG3P2      CG324       HGA2
   38     2    39	5 ;       HGA2      CG324       HGA2
    4     3     2	5 ;       HGP2      NG3P2      CG324
    4     3     6	5 ;       HGP2      NG3P2     CG3C31
    4     3     5	5 ;       HGP2      NG3P2       HGP2
    2     3     6	5 ;      CG324      NG3P2     CG3C31
    2     3     5	5 ;      CG324      NG3P2       HGP2
    6     3     5	5 ;     CG3C31      NG3P2       HGP2
    9     6     3	5 ;     CG2R61     CG3C31      NG3P2
    9     6     7	5 ;     CG2R61     CG3C31     CG3C31
    9     6     8	5 ;     CG2R61     CG3C31     CG3C31
    3     6     7	5 ;      NG3P2     CG3C31     CG3C31
    3     6     8	5 ;      NG3P2     CG3C31     CG3C31
    7     6     8	5 ;     CG3C31     CG3C31     CG3C31
    6     7     8	5 ;     CG3C31     CG3C31     CG3C31
    6     7    40	5 ;     CG3C31     CG3C31       HGA2
    6     7    41	5 ;     CG3C31     CG3C31       HGA2
    8     7    40	5 ;     CG3C31     CG3C31       HGA2
    8     7    41	5 ;     CG3C31     CG3C31       HGA2
   40     7    41	5 ;       HGA2     CG3C31       HGA2
    6     8     7	5 ;     CG3C31     CG3C31     CG3C31
    6     8    42	5 ;     CG3C31     CG3C31       HGA2
    6     8    43	5 ;     CG3C31     CG3C31       HGA2
    7     8    42	5 ;     CG3C31     CG3C31       HGA2
    7     8    43	5 ;     CG3C31     CG3C31       HGA2
   42     8    43	5 ;       HGA2     CG3C31       HGA2
   10     9    14	5 ;     CG2R61     CG2R61     CG2R61
   10     9     6	5 ;     CG2R61     CG2R61     CG3C31
   14     9     6	5 ;     CG2R61     CG2R61     CG3C31
   11    10     9	5 ;     CG2R61     CG2R61     CG2R61
   11    10    44	5 ;     CG2R61     CG2R61      HGR61
    9    10    44	5 ;     CG2R61     CG2R61      HGR61
   15    11    12	5 ;     CG3C51     CG2R61     CG2R61
   15    11    10	5 ;     CG3C51     CG2R61     CG2R61
   12    11    10	5 ;     CG2R61     CG2R61     CG2R61
   11    12    13	5 ;     CG2R61     CG2R61     CG2R61
   11    12    45	5 ;     CG2R61     CG2R61      HGR61
   13    12    45	5 ;     CG2R61     CG2R61      HGR61
   12    13    14	5 ;     CG2R61     CG2R61     CG2R61
   12    13    46	5 ;     CG2R61     CG2R61      HGR61
   14    13    46	5 ;     CG2R61     CG2R61      HGR61
   13    14     9	5 ;     CG2R61     CG2R61     CG2R61
   13    14    47	5 ;     CG2R61     CG2R61      HGR61
    9    14    47	5 ;     CG2R61     CG2R61      HGR61
   16    15    19	5 ;     CG3C52     CG3C51     CG3C52
   16    15    11	5 ;     CG3C52     CG3C51     CG2R61
   16    15    48	5 ;     CG3C52     CG3C51       HGA1
   19    15    11	5 ;     CG3C52     CG3C51     CG2R61
   19    15    48	5 ;     CG3C52     CG3C51       HGA1
   11    15    48	5 ;     CG2R61     CG3C51       HGA1
   17    16    15	5 ;     CG3C52     CG3C52     CG3C51
   17    16    49	5 ;     CG3C52     CG3C52       HGA2
   17    16    50	5 ;     CG3C52     CG3C52       HGA2
   15    16    49	5 ;     CG3C51     CG3C52       HGA2
   15    16    50	5 ;     CG3C51     CG3C52       HGA2
   49    16    50	5 ;       HGA2     CG3C52       HGA2
   18    17    16	5 ;     OG3C51     CG3C52     CG3C52
   18    17    51	5 ;     OG3C51     CG3C52       HGA2
   18    17    52	5 ;     OG3C51     CG3C52       HGA2
   16    17    51	5 ;     CG3C52     CG3C52       HGA2
   16    17    52	5 ;     CG3C52     CG3C52       HGA2
   51    17    52	5 ;       HGA2     CG3C52       HGA2
   17    18    19	5 ;     CG3C52     OG3C51     CG3C52
   15    19    18	5 ;     CG3C51     CG3C52     OG3C51
   15    19    53	5 ;     CG3C51     CG3C52       HGA2
   15    19    54	5 ;     CG3C51     CG3C52       HGA2
   18    19    53	5 ;     OG3C51     CG3C52       HGA2
   18    19    54	5 ;     OG3C51     CG3C52       HGA2
   53    19    54	5 ;       HGA2     CG3C52       HGA2
    1    20    21	5 ;      CG311      OG311       HGP1
   23    22    28	5 ;      NG2S1      CG311      CG321
   23    22     1	5 ;      NG2S1      CG311      CG311
   23    22    55	5 ;      NG2S1      CG311       HGA1
   28    22     1	5 ;      CG321      CG311      CG311
   28    22    55	5 ;      CG321      CG311       HGA1
    1    22    55	5 ;      CG311      CG311       HGA1
   24    23    27	5 ;      CG2O1      NG2S1       HGP1
   24    23    22	5 ;      CG2O1      NG2S1      CG311
   27    23    22	5 ;       HGP1      NG2S1      CG311
   26    24    25	5 ;      CG331      CG2O1      OG2D1
   26    24    23	5 ;      CG331      CG2O1      NG2S1
   25    24    23	5 ;      OG2D1      CG2O1      NG2S1
   24    26    56	5 ;      CG2O1      CG331       HGA3
   24    26    57	5 ;      CG2O1      CG331       HGA3
   24    26    58	5 ;      CG2O1      CG331       HGA3
   56    26    57	5 ;       HGA3      CG331       HGA3
   56    26    58	5 ;       HGA3      CG331       HGA3
   57    26    58	5 ;       HGA3      CG331       HGA3
   29    28    22	5 ;     CG2R61      CG321      CG311
   29    28    59	5 ;     CG2R61      CG321       HGA2
   29    28    60	5 ;     CG2R61      CG321       HGA2
   22    28    59	5 ;      CG311      CG321       HGA2
   22    28    60	5 ;      CG311      CG321       HGA2
   59    28    60	5 ;       HGA2      CG321       HGA2
   30    29    35	5 ;     CG2R61     CG2R61     CG2R61
   30    29    28	5 ;     CG2R61     CG2R61      CG321
   35    29    28	5 ;     CG2R61     CG2R61      CG321
   31    30    29	5 ;     CG2R66     CG2R61     CG2R61
   31    30    61	5 ;     CG2R66     CG2R61      HGR62
   29    30    61	5 ;     CG2R61     CG2R61      HGR62
   32    31    33	5 ;       FGR1     CG2R66     CG2R61
   32    31    30	5 ;       FGR1     CG2R66     CG2R61
   33    31    30	5 ;     CG2R61     CG2R66     CG2R61
   31    33    34	5 ;     CG2R66     CG2R61     CG2R66
   31    33    62	5 ;     CG2R66     CG2R61      HGR62
   34    33    62	5 ;     CG2R66     CG2R61      HGR62
   33    34    36	5 ;     CG2R61     CG2R66       FGR1
   33    34    35	5 ;     CG2R61     CG2R66     CG2R61
   36    34    35	5 ;       FGR1     CG2R66     CG2R61
   34    35    29	5 ;     CG2R66     CG2R61     CG2R61
   34    35    63	5 ;     CG2R66     CG2R61      HGR62
   29    35    63	5 ;     CG2R61     CG2R61      HGR62

[ dihedrals ]
;	ai	  aj	ak	  al funct			  c0			c1			  c2			c3			  c4			c5
   20     1    22    23	 9 ;      OG311      CG311      CG311      NG2S1
   20     1    22    28	 9 ;      OG311      CG311      CG311      CG321
   20     1    22    55	 9 ;      OG311      CG311      CG311       HGA1
    2     1    22    23	 9 ;      CG324      CG311      CG311      NG2S1
    2     1    22    28	 9 ;      CG324      CG311      CG311      CG321
    2     1    22    55	 9 ;      CG324      CG311      CG311       HGA1
   37     1    22    23	 9 ;       HGA1      CG311      CG311      NG2S1
   37     1    22    28	 9 ;       HGA1      CG311      CG311      CG321
   37     1    22    55	 9 ;       HGA1      CG311      CG311       HGA1
   22     1    20    21	 9 ;      CG311      CG311      OG311       HGP1
    2     1    20    21	 9 ;      CG324      CG311      OG311       HGP1
   37     1    20    21	 9 ;       HGA1      CG311      OG311       HGP1
   22     1     2     3	 9 ;      CG311      CG311      CG324      NG3P2
   22     1     2    38	 9 ;      CG311      CG311      CG324       HGA2
   22     1     2    39	 9 ;      CG311      CG311      CG324       HGA2
   20     1     2     3	 9 ;      OG311      CG311      CG324      NG3P2
   20     1     2    38	 9 ;      OG311      CG311      CG324       HGA2
   20     1     2    39	 9 ;      OG311      CG311      CG324       HGA2
   37     1     2     3	 9 ;       HGA1      CG311      CG324      NG3P2
   37     1     2    38	 9 ;       HGA1      CG311      CG324       HGA2
   37     1     2    39	 9 ;       HGA1      CG311      CG324       HGA2
    1     2     3     4	 9 ;      CG311      CG324      NG3P2       HGP2
    1     2     3     6	 9 ;      CG311      CG324      NG3P2     CG3C31
    1     2     3     5	 9 ;      CG311      CG324      NG3P2       HGP2
   38     2     3     4	 9 ;       HGA2      CG324      NG3P2       HGP2
   38     2     3     6	 9 ;       HGA2      CG324      NG3P2     CG3C31
   38     2     3     5	 9 ;       HGA2      CG324      NG3P2       HGP2
   39     2     3     4	 9 ;       HGA2      CG324      NG3P2       HGP2
   39     2     3     6	 9 ;       HGA2      CG324      NG3P2     CG3C31
   39     2     3     5	 9 ;       HGA2      CG324      NG3P2       HGP2
    4     3     6     9	 9 ;       HGP2      NG3P2     CG3C31     CG2R61
    4     3     6     7	 9 ;       HGP2      NG3P2     CG3C31     CG3C31
    4     3     6     8	 9 ;       HGP2      NG3P2     CG3C31     CG3C31
    2     3     6     9	 9 ;      CG324      NG3P2     CG3C31     CG2R61
    2     3     6     7	 9 ;      CG324      NG3P2     CG3C31     CG3C31
    2     3     6     8	 9 ;      CG324      NG3P2     CG3C31     CG3C31
    5     3     6     9	 9 ;       HGP2      NG3P2     CG3C31     CG2R61
    5     3     6     7	 9 ;       HGP2      NG3P2     CG3C31     CG3C31
    5     3     6     8	 9 ;       HGP2      NG3P2     CG3C31     CG3C31
    3     6     9    10	 9 ;      NG3P2     CG3C31     CG2R61     CG2R61
    3     6     9    14	 9 ;      NG3P2     CG3C31     CG2R61     CG2R61
    7     6     9    10	 9 ;     CG3C31     CG3C31     CG2R61     CG2R61
    7     6     9    14	 9 ;     CG3C31     CG3C31     CG2R61     CG2R61
    8     6     9    10	 9 ;     CG3C31     CG3C31     CG2R61     CG2R61
    8     6     9    14	 9 ;     CG3C31     CG3C31     CG2R61     CG2R61
    9     6     7     8	 9 ;     CG2R61     CG3C31     CG3C31     CG3C31
    9     6     7    40	 9 ;     CG2R61     CG3C31     CG3C31       HGA2
    9     6     7    41	 9 ;     CG2R61     CG3C31     CG3C31       HGA2
    3     6     7     8	 9 ;      NG3P2     CG3C31     CG3C31     CG3C31
    3     6     7    40	 9 ;      NG3P2     CG3C31     CG3C31       HGA2
    3     6     7    41	 9 ;      NG3P2     CG3C31     CG3C31       HGA2
    8     6     7    40	 9 ;     CG3C31     CG3C31     CG3C31       HGA2
    8     6     7    41	 9 ;     CG3C31     CG3C31     CG3C31       HGA2
    9     6     8     7	 9 ;     CG2R61     CG3C31     CG3C31     CG3C31
    9     6     8    42	 9 ;     CG2R61     CG3C31     CG3C31       HGA2
    9     6     8    43	 9 ;     CG2R61     CG3C31     CG3C31       HGA2
    3     6     8     7	 9 ;      NG3P2     CG3C31     CG3C31     CG3C31
    3     6     8    42	 9 ;      NG3P2     CG3C31     CG3C31       HGA2
    3     6     8    43	 9 ;      NG3P2     CG3C31     CG3C31       HGA2
    7     6     8    42	 9 ;     CG3C31     CG3C31     CG3C31       HGA2
    7     6     8    43	 9 ;     CG3C31     CG3C31     CG3C31       HGA2
    6     7     8    42	 9 ;     CG3C31     CG3C31     CG3C31       HGA2
    6     7     8    43	 9 ;     CG3C31     CG3C31     CG3C31       HGA2
   40     7     8     6	 9 ;       HGA2     CG3C31     CG3C31     CG3C31
   40     7     8    42	 9 ;       HGA2     CG3C31     CG3C31       HGA2
   40     7     8    43	 9 ;       HGA2     CG3C31     CG3C31       HGA2
   41     7     8     6	 9 ;       HGA2     CG3C31     CG3C31     CG3C31
   41     7     8    42	 9 ;       HGA2     CG3C31     CG3C31       HGA2
   41     7     8    43	 9 ;       HGA2     CG3C31     CG3C31       HGA2
   14     9    10    11	 9 ;     CG2R61     CG2R61     CG2R61     CG2R61
   14     9    10    44	 9 ;     CG2R61     CG2R61     CG2R61      HGR61
    6     9    10    11	 9 ;     CG3C31     CG2R61     CG2R61     CG2R61
    6     9    10    44	 9 ;     CG3C31     CG2R61     CG2R61      HGR61
   10     9    14    13	 9 ;     CG2R61     CG2R61     CG2R61     CG2R61
   10     9    14    47	 9 ;     CG2R61     CG2R61     CG2R61      HGR61
    6     9    14    13	 9 ;     CG3C31     CG2R61     CG2R61     CG2R61
    6     9    14    47	 9 ;     CG3C31     CG2R61     CG2R61      HGR61
    9    10    11    15	 9 ;     CG2R61     CG2R61     CG2R61     CG3C51
    9    10    11    12	 9 ;     CG2R61     CG2R61     CG2R61     CG2R61
   44    10    11    15	 9 ;      HGR61     CG2R61     CG2R61     CG3C51
   44    10    11    12	 9 ;      HGR61     CG2R61     CG2R61     CG2R61
   12    11    15    16	 9 ;     CG2R61     CG2R61     CG3C51     CG3C52
   12    11    15    19	 9 ;     CG2R61     CG2R61     CG3C51     CG3C52
   12    11    15    48	 9 ;     CG2R61     CG2R61     CG3C51       HGA1
   10    11    15    16	 9 ;     CG2R61     CG2R61     CG3C51     CG3C52
   10    11    15    19	 9 ;     CG2R61     CG2R61     CG3C51     CG3C52
   10    11    15    48	 9 ;     CG2R61     CG2R61     CG3C51       HGA1
   15    11    12    13	 9 ;     CG3C51     CG2R61     CG2R61     CG2R61
   15    11    12    45	 9 ;     CG3C51     CG2R61     CG2R61      HGR61
   10    11    12    13	 9 ;     CG2R61     CG2R61     CG2R61     CG2R61
   10    11    12    45	 9 ;     CG2R61     CG2R61     CG2R61      HGR61
   11    12    13    14	 9 ;     CG2R61     CG2R61     CG2R61     CG2R61
   11    12    13    46	 9 ;     CG2R61     CG2R61     CG2R61      HGR61
   45    12    13    14	 9 ;      HGR61     CG2R61     CG2R61     CG2R61
   45    12    13    46	 9 ;      HGR61     CG2R61     CG2R61      HGR61
   12    13    14     9	 9 ;     CG2R61     CG2R61     CG2R61     CG2R61
   12    13    14    47	 9 ;     CG2R61     CG2R61     CG2R61      HGR61
   46    13    14     9	 9 ;      HGR61     CG2R61     CG2R61     CG2R61
   46    13    14    47	 9 ;      HGR61     CG2R61     CG2R61      HGR61
   19    15    16    17	 9 ;     CG3C52     CG3C51     CG3C52     CG3C52
   19    15    16    49	 9 ;     CG3C52     CG3C51     CG3C52       HGA2
   19    15    16    50	 9 ;     CG3C52     CG3C51     CG3C52       HGA2
   11    15    16    17	 9 ;     CG2R61     CG3C51     CG3C52     CG3C52
   11    15    16    49	 9 ;     CG2R61     CG3C51     CG3C52       HGA2
   11    15    16    50	 9 ;     CG2R61     CG3C51     CG3C52       HGA2
   48    15    16    17	 9 ;       HGA1     CG3C51     CG3C52     CG3C52
   48    15    16    49	 9 ;       HGA1     CG3C51     CG3C52       HGA2
   48    15    16    50	 9 ;       HGA1     CG3C51     CG3C52       HGA2
   16    15    19    18	 9 ;     CG3C52     CG3C51     CG3C52     OG3C51
   16    15    19    53	 9 ;     CG3C52     CG3C51     CG3C52       HGA2
   16    15    19    54	 9 ;     CG3C52     CG3C51     CG3C52       HGA2
   11    15    19    18	 9 ;     CG2R61     CG3C51     CG3C52     OG3C51
   11    15    19    53	 9 ;     CG2R61     CG3C51     CG3C52       HGA2
   11    15    19    54	 9 ;     CG2R61     CG3C51     CG3C52       HGA2
   48    15    19    18	 9 ;       HGA1     CG3C51     CG3C52     OG3C51
   48    15    19    53	 9 ;       HGA1     CG3C51     CG3C52       HGA2
   48    15    19    54	 9 ;       HGA1     CG3C51     CG3C52       HGA2
   15    16    17    18	 9 ;     CG3C51     CG3C52     CG3C52     OG3C51
   15    16    17    51	 9 ;     CG3C51     CG3C52     CG3C52       HGA2
   15    16    17    52	 9 ;     CG3C51     CG3C52     CG3C52       HGA2
   49    16    17    18	 9 ;       HGA2     CG3C52     CG3C52     OG3C51
   49    16    17    51	 9 ;       HGA2     CG3C52     CG3C52       HGA2
   49    16    17    52	 9 ;       HGA2     CG3C52     CG3C52       HGA2
   50    16    17    18	 9 ;       HGA2     CG3C52     CG3C52     OG3C51
   50    16    17    51	 9 ;       HGA2     CG3C52     CG3C52       HGA2
   50    16    17    52	 9 ;       HGA2     CG3C52     CG3C52       HGA2
   16    17    18    19	 9 ;     CG3C52     CG3C52     OG3C51     CG3C52
   51    17    18    19	 9 ;       HGA2     CG3C52     OG3C51     CG3C52
   52    17    18    19	 9 ;       HGA2     CG3C52     OG3C51     CG3C52
   17    18    19    15	 9 ;     CG3C52     OG3C51     CG3C52     CG3C51
   17    18    19    53	 9 ;     CG3C52     OG3C51     CG3C52       HGA2
   17    18    19    54	 9 ;     CG3C52     OG3C51     CG3C52       HGA2
   28    22    23    24	 9 ;      CG321      CG311      NG2S1      CG2O1
   28    22    23    27	 9 ;      CG321      CG311      NG2S1       HGP1
    1    22    23    24	 9 ;      CG311      CG311      NG2S1      CG2O1
    1    22    23    27	 9 ;      CG311      CG311      NG2S1       HGP1
   55    22    23    24	 9 ;       HGA1      CG311      NG2S1      CG2O1
   55    22    23    27	 9 ;       HGA1      CG311      NG2S1       HGP1
   23    22    28    29	 9 ;      NG2S1      CG311      CG321     CG2R61
   23    22    28    59	 9 ;      NG2S1      CG311      CG321       HGA2
   23    22    28    60	 9 ;      NG2S1      CG311      CG321       HGA2
    1    22    28    29	 9 ;      CG311      CG311      CG321     CG2R61
    1    22    28    59	 9 ;      CG311      CG311      CG321       HGA2
    1    22    28    60	 9 ;      CG311      CG311      CG321       HGA2
   55    22    28    29	 9 ;       HGA1      CG311      CG321     CG2R61
   55    22    28    59	 9 ;       HGA1      CG311      CG321       HGA2
   55    22    28    60	 9 ;       HGA1      CG311      CG321       HGA2
   27    23    24    26	 9 ;       HGP1      NG2S1      CG2O1      CG331
   27    23    24    25	 9 ;       HGP1      NG2S1      CG2O1      OG2D1
   22    23    24    26	 9 ;      CG311      NG2S1      CG2O1      CG331
   22    23    24    25	 9 ;      CG311      NG2S1      CG2O1      OG2D1
   25    24    26    56	 9 ;      OG2D1      CG2O1      CG331       HGA3
   25    24    26    57	 9 ;      OG2D1      CG2O1      CG331       HGA3
   25    24    26    58	 9 ;      OG2D1      CG2O1      CG331       HGA3
   23    24    26    56	 9 ;      NG2S1      CG2O1      CG331       HGA3
   23    24    26    57	 9 ;      NG2S1      CG2O1      CG331       HGA3
   23    24    26    58	 9 ;      NG2S1      CG2O1      CG331       HGA3
   22    28    29    30	 9 ;      CG311      CG321     CG2R61     CG2R61
   22    28    29    35	 9 ;      CG311      CG321     CG2R61     CG2R61
   59    28    29    30	 9 ;       HGA2      CG321     CG2R61     CG2R61
   59    28    29    35	 9 ;       HGA2      CG321     CG2R61     CG2R61
   60    28    29    30	 9 ;       HGA2      CG321     CG2R61     CG2R61
   60    28    29    35	 9 ;       HGA2      CG321     CG2R61     CG2R61
   35    29    30    31	 9 ;     CG2R61     CG2R61     CG2R61     CG2R66
   35    29    30    61	 9 ;     CG2R61     CG2R61     CG2R61      HGR62
   28    29    30    31	 9 ;      CG321     CG2R61     CG2R61     CG2R66
   28    29    30    61	 9 ;      CG321     CG2R61     CG2R61      HGR62
   30    29    35    34	 9 ;     CG2R61     CG2R61     CG2R61     CG2R66
   30    29    35    63	 9 ;     CG2R61     CG2R61     CG2R61      HGR62
   28    29    35    34	 9 ;      CG321     CG2R61     CG2R61     CG2R66
   28    29    35    63	 9 ;      CG321     CG2R61     CG2R61      HGR62
   29    30    31    32	 9 ;     CG2R61     CG2R61     CG2R66       FGR1
   29    30    31    33	 9 ;     CG2R61     CG2R61     CG2R66     CG2R61
   61    30    31    32	 9 ;      HGR62     CG2R61     CG2R66       FGR1
   61    30    31    33	 9 ;      HGR62     CG2R61     CG2R66     CG2R61
   32    31    33    34	 9 ;       FGR1     CG2R66     CG2R61     CG2R66
   32    31    33    62	 9 ;       FGR1     CG2R66     CG2R61      HGR62
   30    31    33    34	 9 ;     CG2R61     CG2R66     CG2R61     CG2R66
   30    31    33    62	 9 ;     CG2R61     CG2R66     CG2R61      HGR62
   31    33    34    36	 9 ;     CG2R66     CG2R61     CG2R66       FGR1
   31    33    34    35	 9 ;     CG2R66     CG2R61     CG2R66     CG2R61
   62    33    34    36	 9 ;      HGR62     CG2R61     CG2R66       FGR1
   62    33    34    35	 9 ;      HGR62     CG2R61     CG2R66     CG2R61
   33    34    35    29	 9 ;     CG2R61     CG2R66     CG2R61     CG2R61
   33    34    35    63	 9 ;     CG2R61     CG2R66     CG2R61      HGR62
   36    34    35    29	 9 ;       FGR1     CG2R66     CG2R61     CG2R61
   36    34    35    63	 9 ;       FGR1     CG2R66     CG2R61      HGR62

[ dihedrals ]
;	ai	  aj	ak	  al funct			  c0			c1			  c2			c3
   24    26    23    25	 2

