Gromacs Runs On Most of All Computer Systems
   62
    1LIG     C1    1  -1.242   0.389  -1.723
    1LIG     N1    2  -1.259   0.302  -1.613
    1LIG     C2    3  -1.153   0.210  -1.609
    1LIG     C3    4  -1.069   0.241  -1.715
    1LIG     C4    5  -1.124   0.349  -1.785
    1LIG     C5    6  -1.334   0.494  -1.772
    1LIG     C6    7  -1.354   0.615  -1.707
    1LIG     C7    8  -1.461   0.699  -1.742
    1LIG     C8    9  -1.541   0.669  -1.852
    1LIG     C9   10  -1.506   0.561  -1.933
    1LIG    C10   11  -1.406   0.473  -1.891
    1LIG    C11   12  -1.666   0.747  -1.873
    1LIG      O   13  -1.700   0.782  -1.984
    1LIG     N2   14  -1.734   0.783  -1.757
    1LIG     H1   15  -1.694   0.759  -1.668
    1LIG    C12   16  -1.846   0.875  -1.756
    1LIG    C13   17  -1.803   1.021  -1.749
    1LIG    C14   18  -1.687   1.045  -1.651
    1LIG    C15   19  -1.736   1.107  -1.521
    1LIG    C16   20  -1.372   0.304  -1.517
    1LIG    C17   21  -1.510   0.310  -1.583
    1LIG     N3   22  -1.594   0.413  -1.548
    1LIG    C18   23  -1.709   0.427  -1.618
    1LIG     HN   24  -1.570   0.477  -1.472
    1LIG    C19   25  -1.741   0.347  -1.726
    1LIG    C20   26  -1.662   0.236  -1.751
    1LIG    C21   27  -1.548   0.214  -1.676
    1LIG     N4   28  -1.797   0.530  -1.582
    1LIG     H2   29  -1.891   0.492  -1.578
    1LIG     H3   30  -1.789   0.608  -1.645
    1LIG    C22   31  -1.130   0.101  -1.511
    1LIG    C23   32  -1.038   0.113  -1.406
    1LIG    C24   33  -1.014   0.010  -1.316
    1LIG    C25   34  -1.089  -0.106  -1.324
    1LIG    C26   35  -1.185  -0.120  -1.423
    1LIG    C27   36  -1.204  -0.018  -1.517
    1LIG     HC   37  -0.978   0.190  -1.740
    1LIG    HC1   38  -1.082   0.394  -1.874
    1LIG    HC2   39  -1.288   0.645  -1.627
    1LIG    HC3   40  -1.481   0.788  -1.684
    1LIG    HC4   41  -1.556   0.546  -2.028
    1LIG    HC5   42  -1.383   0.386  -1.952
    1LIG    HC6   43  -1.904   0.860  -1.847
    1LIG    HC7   44  -1.909   0.853  -1.670
    1LIG    HC8   45  -1.772   1.053  -1.848
    1LIG    HC9   46  -1.888   1.081  -1.717
    1LIG   HC10   47  -1.615   1.113  -1.698
    1LIG   HC11   48  -1.638   0.951  -1.630
    1LIG   HC12   49  -1.651   1.123  -1.455
    1LIG   HC13   50  -1.784   1.203  -1.542
    1LIG   HC14   51  -1.807   1.040  -1.474
    1LIG   HC15   52  -1.361   0.391  -1.453
    1LIG   HC16   53  -1.367   0.214  -1.456
    1LIG   HC17   54  -1.825   0.370  -1.789
    1LIG   HC18   55  -1.690   0.166  -1.829
    1LIG   HC19   56  -1.490   0.124  -1.688
    1LIG   HC20   57  -0.984   0.206  -1.394
    1LIG   HC21   58  -0.937   0.020  -1.241
    1LIG   HC22   59  -1.073  -0.186  -1.253
    1LIG   HC23   60  -1.246  -0.209  -1.428
    1LIG   HC24   61  -1.276  -0.031  -1.596
    1LIG    H30   62  -1.469   0.371  -1.663
   0.00000   0.00000   0.00000
