; Created by cgenff_charmm2gmx.py

[ moleculetype ]
; Name			   nrexcl
LIG				 3

[ atoms ]
;	 nr		  type	resnr residue  atom   cgnr	   charge		mass  typeB    chargeB		massB
; residue	 1 LIG rtp LIG q	qsum
     1     CG2R51      1    LIG     C1      1     -0.202     12.011   ;
     2     NG2R51      1    LIG     N1      2     -0.093     14.007   ;
     3     CG2R51      1    LIG     C2      3     -0.202     12.011   ;
     4     CG2R51      1    LIG     C3      4     -0.231     12.011   ;
     5     CG2R51      1    LIG     C4      5     -0.231     12.011   ;
     6     CG2R61      1    LIG     C5      6      0.129     12.011   ;
     7     CG2R61      1    LIG     C6      7     -0.119     12.011   ;
     8     CG2R61      1    LIG     C7      8     -0.059     12.011   ;
     9     CG2R61      1    LIG     C8      9     -0.108     12.011   ;
    10     CG2R61      1    LIG     C9     10     -0.059     12.011   ;
    11     CG2R61      1    LIG    C10     11     -0.119     12.011   ;
    12      CG2O1      1    LIG    C11     12      0.347     12.011   ;
    13      OG2D1      1    LIG      O     13     -0.467     15.999   ;
    14      NG2S1      1    LIG     N2     14     -0.348     14.007   ;
    15       HGP1      1    LIG     H1     15      0.298      1.008   ;
    16      CG321      1    LIG    C12     16     -0.016     12.011   ;
    17      CG321      1    LIG    C13     17     -0.184     12.011   ;
    18      CG321      1    LIG    C14     18     -0.178     12.011   ;
    19      CG331      1    LIG    C15     19     -0.270     12.011   ;
    20      CG321      1    LIG    C16     20      0.137     12.011   ;
    21      CG311      1    LIG    C17     21      0.189     12.011   ;
    22      NG311      1    LIG     N3     22     -0.486     14.007   ;
    23     CG2D1O      1    LIG    C18     23      0.215     12.011   ;
    24     HGPAM1      1    LIG     HN     24      0.358      1.008   ;
    25     CG2DC1      1    LIG    C19     25     -0.435     12.011   ;
    26     CG2DC2      1    LIG    C20     26     -0.142     12.011   ;
    27     CG2DC2      1    LIG    C21     27     -0.306     12.011   ;
    28      NG321      1    LIG     N4     28     -0.745     14.007   ;
    29     HGPAM2      1    LIG     H2     29      0.404      1.008   ;
    30     HGPAM2      1    LIG     H3     30      0.404      1.008   ;
    31     CG2R61      1    LIG    C22     31      0.129     12.011   ;
    32     CG2R61      1    LIG    C23     32     -0.121     12.011   ;
    33     CG2R61      1    LIG    C24     33     -0.115     12.011   ;
    34     CG2R61      1    LIG    C25     34     -0.116     12.011   ;
    35     CG2R61      1    LIG    C26     35     -0.115     12.011   ;
    36     CG2R61      1    LIG    C27     36     -0.121     12.011   ;
    37      HGR51      1    LIG     HC     37      0.202      1.008   ;
    38      HGR51      1    LIG    HC1     38      0.202      1.008   ;
    39      HGR61      1    LIG    HC2     39      0.116      1.008   ;
    40      HGR61      1    LIG    HC3     40      0.116      1.008   ;
    41      HGR61      1    LIG    HC4     41      0.116      1.008   ;
    42      HGR61      1    LIG    HC5     42      0.116      1.008   ;
    43       HGA2      1    LIG    HC6     43      0.090      1.008   ;
    44       HGA2      1    LIG    HC7     44      0.090      1.008   ;
    45       HGA2      1    LIG    HC8     45      0.090      1.008   ;
    46       HGA2      1    LIG    HC9     46      0.090      1.008   ;
    47       HGA2      1    LIG   HC10     47      0.090      1.008   ;
    48       HGA2      1    LIG   HC11     48      0.090      1.008   ;
    49       HGA3      1    LIG   HC12     49      0.090      1.008   ;
    50       HGA3      1    LIG   HC13     50      0.090      1.008   ;
    51       HGA3      1    LIG   HC14     51      0.090      1.008   ;
    52       HGA2      1    LIG   HC15     52      0.090      1.008   ;
    53       HGA2      1    LIG   HC16     53      0.090      1.008   ;
    54       HGA4      1    LIG   HC17     54      0.150      1.008   ;
    55       HGA4      1    LIG   HC18     55      0.150      1.008   ;
    56       HGA4      1    LIG   HC19     56      0.150      1.008   ;
    57      HGR61      1    LIG   HC20     57      0.116      1.008   ;
    58      HGR61      1    LIG   HC21     58      0.116      1.008   ;
    59      HGR61      1    LIG   HC22     59      0.116      1.008   ;
    60      HGR61      1    LIG   HC23     60      0.116      1.008   ;
    61      HGR61      1    LIG   HC24     61      0.116      1.008   ;
    62       HGA1      1    LIG    H30     62      0.090      1.008   ;

[ bonds ]
;	ai	  aj funct			  c0			c1			  c2			c3
    1     5	 1 ;      CG2R51     CG2R51
    1     6	 1 ;      CG2R51     CG2R61
    1     2	 1 ;      CG2R51     NG2R51
    2     3	 1 ;      NG2R51     CG2R51
    2    20	 1 ;      NG2R51      CG321
    3     4	 1 ;      CG2R51     CG2R51
    3    31	 1 ;      CG2R51     CG2R61
    4     5	 1 ;      CG2R51     CG2R51
    4    37	 1 ;      CG2R51      HGR51
    5    38	 1 ;      CG2R51      HGR51
    6    11	 1 ;      CG2R61     CG2R61
    6     7	 1 ;      CG2R61     CG2R61
    7     8	 1 ;      CG2R61     CG2R61
    7    39	 1 ;      CG2R61      HGR61
    8     9	 1 ;      CG2R61     CG2R61
    8    40	 1 ;      CG2R61      HGR61
    9    10	 1 ;      CG2R61     CG2R61
    9    12	 1 ;      CG2R61      CG2O1
   10    11	 1 ;      CG2R61     CG2R61
   10    41	 1 ;      CG2R61      HGR61
   11    42	 1 ;      CG2R61      HGR61
   12    13	 1 ;       CG2O1      OG2D1
   12    14	 1 ;       CG2O1      NG2S1
   14    15	 1 ;       NG2S1       HGP1
   14    16	 1 ;       NG2S1      CG321
   16    17	 1 ;       CG321      CG321
   16    43	 1 ;       CG321       HGA2
   16    44	 1 ;       CG321       HGA2
   17    18	 1 ;       CG321      CG321
   17    45	 1 ;       CG321       HGA2
   17    46	 1 ;       CG321       HGA2
   18    19	 1 ;       CG321      CG331
   18    47	 1 ;       CG321       HGA2
   18    48	 1 ;       CG321       HGA2
   19    49	 1 ;       CG331       HGA3
   19    50	 1 ;       CG331       HGA3
   19    51	 1 ;       CG331       HGA3
   20    21	 1 ;       CG321      CG311
   20    52	 1 ;       CG321       HGA2
   20    53	 1 ;       CG321       HGA2
   21    27	 1 ;       CG311     CG2DC2
   21    22	 1 ;       CG311      NG311
   21    62	 1 ;       CG311       HGA1
   22    24	 1 ;       NG311     HGPAM1
   22    23	 1 ;       NG311     CG2D1O
   23    25	 1 ;      CG2D1O     CG2DC1
   23    28	 1 ;      CG2D1O      NG321
   25    26	 1 ;      CG2DC1     CG2DC2
   25    54	 1 ;      CG2DC1       HGA4
   26    27	 1 ;      CG2DC2     CG2DC2
   26    55	 1 ;      CG2DC2       HGA4
   27    56	 1 ;      CG2DC2       HGA4
   28    30	 1 ;       NG321     HGPAM2
   28    29	 1 ;       NG321     HGPAM2
   31    32	 1 ;      CG2R61     CG2R61
   31    36	 1 ;      CG2R61     CG2R61
   32    33	 1 ;      CG2R61     CG2R61
   32    57	 1 ;      CG2R61      HGR61
   33    34	 1 ;      CG2R61     CG2R61
   33    58	 1 ;      CG2R61      HGR61
   34    35	 1 ;      CG2R61     CG2R61
   34    59	 1 ;      CG2R61      HGR61
   35    36	 1 ;      CG2R61     CG2R61
   35    60	 1 ;      CG2R61      HGR61
   36    61	 1 ;      CG2R61      HGR61

[ pairs ]
;	ai	  aj funct			  c0			c1			  c2			c3
    1    31	 1
    1    21	 1
    1    52	 1
    1    53	 1
    1    37	 1
    1    10	 1
    1    42	 1
    1     8	 1
    1    39	 1
    2    38	 1
    2    11	 1
    2     7	 1
    2    37	 1
    2    32	 1
    2    36	 1
    2    27	 1
    2    22	 1
    2    62	 1
    3     6	 1
    3    21	 1
    3    52	 1
    3    53	 1
    3    38	 1
    3    33	 1
    3    57	 1
    3    35	 1
    3    61	 1
    4     6	 1
    4    20	 1
    4    32	 1
    4    36	 1
    5    11	 1
    5     7	 1
    5    20	 1
    5    31	 1
    6    38	 1
    6    20	 1
    6     9	 1
    6    40	 1
    6    41	 1
    7    10	 1
    7    42	 1
    7    12	 1
    8    11	 1
    8    41	 1
    8    13	 1
    8    14	 1
    9    39	 1
    9    42	 1
    9    15	 1
    9    16	 1
   10    40	 1
   10    13	 1
   10    14	 1
   11    39	 1
   11    12	 1
   12    40	 1
   12    41	 1
   12    17	 1
   12    43	 1
   12    44	 1
   13    15	 1
   13    16	 1
   14    18	 1
   14    45	 1
   14    46	 1
   15    17	 1
   15    43	 1
   15    44	 1
   16    19	 1
   16    47	 1
   16    48	 1
   17    49	 1
   17    50	 1
   17    51	 1
   18    43	 1
   18    44	 1
   19    45	 1
   19    46	 1
   20    31	 1
   20    26	 1
   20    56	 1
   20    24	 1
   20    23	 1
   21    25	 1
   21    28	 1
   21    55	 1
   22    52	 1
   22    53	 1
   22    26	 1
   22    56	 1
   22    54	 1
   22    30	 1
   22    29	 1
   23    27	 1
   23    62	 1
   23    55	 1
   24    27	 1
   24    62	 1
   24    25	 1
   24    28	 1
   25    30	 1
   25    29	 1
   25    56	 1
   26    62	 1
   26    28	 1
   27    52	 1
   27    53	 1
   27    54	 1
   28    54	 1
   31    37	 1
   31    34	 1
   31    58	 1
   31    60	 1
   32    35	 1
   32    61	 1
   32    59	 1
   33    36	 1
   33    60	 1
   34    57	 1
   34    61	 1
   35    58	 1
   36    57	 1
   36    59	 1
   37    38	 1
   39    40	 1
   41    42	 1
   43    45	 1
   43    46	 1
   44    45	 1
   44    46	 1
   45    47	 1
   45    48	 1
   46    47	 1
   46    48	 1
   47    49	 1
   47    50	 1
   47    51	 1
   48    49	 1
   48    50	 1
   48    51	 1
   52    62	 1
   53    62	 1
   54    55	 1
   55    56	 1
   56    62	 1
   57    58	 1
   58    59	 1
   59    60	 1
   60    61	 1

[ angles ]
;	ai	  aj	ak funct			c0			  c1			c2			  c3
    5     1     6	5 ;     CG2R51     CG2R51     CG2R61
    5     1     2	5 ;     CG2R51     CG2R51     NG2R51
    6     1     2	5 ;     CG2R61     CG2R51     NG2R51
    1     2     3	5 ;     CG2R51     NG2R51     CG2R51
    1     2    20	5 ;     CG2R51     NG2R51      CG321
    3     2    20	5 ;     CG2R51     NG2R51      CG321
    4     3    31	5 ;     CG2R51     CG2R51     CG2R61
    4     3     2	5 ;     CG2R51     CG2R51     NG2R51
   31     3     2	5 ;     CG2R61     CG2R51     NG2R51
    5     4     3	5 ;     CG2R51     CG2R51     CG2R51
    5     4    37	5 ;     CG2R51     CG2R51      HGR51
    3     4    37	5 ;     CG2R51     CG2R51      HGR51
    4     5     1	5 ;     CG2R51     CG2R51     CG2R51
    4     5    38	5 ;     CG2R51     CG2R51      HGR51
    1     5    38	5 ;     CG2R51     CG2R51      HGR51
    1     6    11	5 ;     CG2R51     CG2R61     CG2R61
    1     6     7	5 ;     CG2R51     CG2R61     CG2R61
   11     6     7	5 ;     CG2R61     CG2R61     CG2R61
    6     7     8	5 ;     CG2R61     CG2R61     CG2R61
    6     7    39	5 ;     CG2R61     CG2R61      HGR61
    8     7    39	5 ;     CG2R61     CG2R61      HGR61
    7     8     9	5 ;     CG2R61     CG2R61     CG2R61
    7     8    40	5 ;     CG2R61     CG2R61      HGR61
    9     8    40	5 ;     CG2R61     CG2R61      HGR61
   10     9     8	5 ;     CG2R61     CG2R61     CG2R61
   10     9    12	5 ;     CG2R61     CG2R61      CG2O1
    8     9    12	5 ;     CG2R61     CG2R61      CG2O1
   11    10     9	5 ;     CG2R61     CG2R61     CG2R61
   11    10    41	5 ;     CG2R61     CG2R61      HGR61
    9    10    41	5 ;     CG2R61     CG2R61      HGR61
    6    11    10	5 ;     CG2R61     CG2R61     CG2R61
    6    11    42	5 ;     CG2R61     CG2R61      HGR61
   10    11    42	5 ;     CG2R61     CG2R61      HGR61
    9    12    13	5 ;     CG2R61      CG2O1      OG2D1
    9    12    14	5 ;     CG2R61      CG2O1      NG2S1
   13    12    14	5 ;      OG2D1      CG2O1      NG2S1
   12    14    15	5 ;      CG2O1      NG2S1       HGP1
   12    14    16	5 ;      CG2O1      NG2S1      CG321
   15    14    16	5 ;       HGP1      NG2S1      CG321
   14    16    17	5 ;      NG2S1      CG321      CG321
   14    16    43	5 ;      NG2S1      CG321       HGA2
   14    16    44	5 ;      NG2S1      CG321       HGA2
   17    16    43	5 ;      CG321      CG321       HGA2
   17    16    44	5 ;      CG321      CG321       HGA2
   43    16    44	5 ;       HGA2      CG321       HGA2
   18    17    16	5 ;      CG321      CG321      CG321
   18    17    45	5 ;      CG321      CG321       HGA2
   18    17    46	5 ;      CG321      CG321       HGA2
   16    17    45	5 ;      CG321      CG321       HGA2
   16    17    46	5 ;      CG321      CG321       HGA2
   45    17    46	5 ;       HGA2      CG321       HGA2
   17    18    19	5 ;      CG321      CG321      CG331
   17    18    47	5 ;      CG321      CG321       HGA2
   17    18    48	5 ;      CG321      CG321       HGA2
   19    18    47	5 ;      CG331      CG321       HGA2
   19    18    48	5 ;      CG331      CG321       HGA2
   47    18    48	5 ;       HGA2      CG321       HGA2
   18    19    49	5 ;      CG321      CG331       HGA3
   18    19    50	5 ;      CG321      CG331       HGA3
   18    19    51	5 ;      CG321      CG331       HGA3
   49    19    50	5 ;       HGA3      CG331       HGA3
   49    19    51	5 ;       HGA3      CG331       HGA3
   50    19    51	5 ;       HGA3      CG331       HGA3
    2    20    21	5 ;     NG2R51      CG321      CG311
    2    20    52	5 ;     NG2R51      CG321       HGA2
    2    20    53	5 ;     NG2R51      CG321       HGA2
   21    20    52	5 ;      CG311      CG321       HGA2
   21    20    53	5 ;      CG311      CG321       HGA2
   52    20    53	5 ;       HGA2      CG321       HGA2
   20    21    27	5 ;      CG321      CG311     CG2DC2
   20    21    22	5 ;      CG321      CG311      NG311
   20    21    62	5 ;      CG321      CG311       HGA1
   27    21    22	5 ;     CG2DC2      CG311      NG311
   27    21    62	5 ;     CG2DC2      CG311       HGA1
   22    21    62	5 ;      NG311      CG311       HGA1
   21    22    24	5 ;      CG311      NG311     HGPAM1
   21    22    23	5 ;      CG311      NG311     CG2D1O
   24    22    23	5 ;     HGPAM1      NG311     CG2D1O
   22    23    25	5 ;      NG311     CG2D1O     CG2DC1
   22    23    28	5 ;      NG311     CG2D1O      NG321
   25    23    28	5 ;     CG2DC1     CG2D1O      NG321
   26    25    23	5 ;     CG2DC2     CG2DC1     CG2D1O
   26    25    54	5 ;     CG2DC2     CG2DC1       HGA4
   23    25    54	5 ;     CG2D1O     CG2DC1       HGA4
   27    26    25	5 ;     CG2DC2     CG2DC2     CG2DC1
   27    26    55	5 ;     CG2DC2     CG2DC2       HGA4
   25    26    55	5 ;     CG2DC1     CG2DC2       HGA4
   21    27    26	5 ;      CG311     CG2DC2     CG2DC2
   21    27    56	5 ;      CG311     CG2DC2       HGA4
   26    27    56	5 ;     CG2DC2     CG2DC2       HGA4
   23    28    30	5 ;     CG2D1O      NG321     HGPAM2
   23    28    29	5 ;     CG2D1O      NG321     HGPAM2
   30    28    29	5 ;     HGPAM2      NG321     HGPAM2
    3    31    32	5 ;     CG2R51     CG2R61     CG2R61
    3    31    36	5 ;     CG2R51     CG2R61     CG2R61
   32    31    36	5 ;     CG2R61     CG2R61     CG2R61
   31    32    33	5 ;     CG2R61     CG2R61     CG2R61
   31    32    57	5 ;     CG2R61     CG2R61      HGR61
   33    32    57	5 ;     CG2R61     CG2R61      HGR61
   32    33    34	5 ;     CG2R61     CG2R61     CG2R61
   32    33    58	5 ;     CG2R61     CG2R61      HGR61
   34    33    58	5 ;     CG2R61     CG2R61      HGR61
   33    34    35	5 ;     CG2R61     CG2R61     CG2R61
   33    34    59	5 ;     CG2R61     CG2R61      HGR61
   35    34    59	5 ;     CG2R61     CG2R61      HGR61
   36    35    34	5 ;     CG2R61     CG2R61     CG2R61
   36    35    60	5 ;     CG2R61     CG2R61      HGR61
   34    35    60	5 ;     CG2R61     CG2R61      HGR61
   31    36    35	5 ;     CG2R61     CG2R61     CG2R61
   31    36    61	5 ;     CG2R61     CG2R61      HGR61
   35    36    61	5 ;     CG2R61     CG2R61      HGR61

[ dihedrals ]
;	ai	  aj	ak	  al funct			  c0			c1			  c2			c3			  c4			c5
    6     1     5     4	 9 ;     CG2R61     CG2R51     CG2R51     CG2R51
    6     1     5    38	 9 ;     CG2R61     CG2R51     CG2R51      HGR51
    2     1     5     4	 9 ;     NG2R51     CG2R51     CG2R51     CG2R51
    2     1     5    38	 9 ;     NG2R51     CG2R51     CG2R51      HGR51
    5     1     6    11	 9 ;     CG2R51     CG2R51     CG2R61     CG2R61
    5     1     6     7	 9 ;     CG2R51     CG2R51     CG2R61     CG2R61
    2     1     6    11	 9 ;     NG2R51     CG2R51     CG2R61     CG2R61
    2     1     6     7	 9 ;     NG2R51     CG2R51     CG2R61     CG2R61
    5     1     2     3	 9 ;     CG2R51     CG2R51     NG2R51     CG2R51
    5     1     2    20	 9 ;     CG2R51     CG2R51     NG2R51      CG321
    6     1     2     3	 9 ;     CG2R61     CG2R51     NG2R51     CG2R51
    6     1     2    20	 9 ;     CG2R61     CG2R51     NG2R51      CG321
    1     2     3     4	 9 ;     CG2R51     NG2R51     CG2R51     CG2R51
    1     2     3    31	 9 ;     CG2R51     NG2R51     CG2R51     CG2R61
   20     2     3     4	 9 ;      CG321     NG2R51     CG2R51     CG2R51
   20     2     3    31	 9 ;      CG321     NG2R51     CG2R51     CG2R61
    1     2    20    21	 9 ;     CG2R51     NG2R51      CG321      CG311
    1     2    20    52	 9 ;     CG2R51     NG2R51      CG321       HGA2
    1     2    20    53	 9 ;     CG2R51     NG2R51      CG321       HGA2
    3     2    20    21	 9 ;     CG2R51     NG2R51      CG321      CG311
    3     2    20    52	 9 ;     CG2R51     NG2R51      CG321       HGA2
    3     2    20    53	 9 ;     CG2R51     NG2R51      CG321       HGA2
   31     3     4     5	 9 ;     CG2R61     CG2R51     CG2R51     CG2R51
   31     3     4    37	 9 ;     CG2R61     CG2R51     CG2R51      HGR51
    2     3     4     5	 9 ;     NG2R51     CG2R51     CG2R51     CG2R51
    2     3     4    37	 9 ;     NG2R51     CG2R51     CG2R51      HGR51
    4     3    31    32	 9 ;     CG2R51     CG2R51     CG2R61     CG2R61
    4     3    31    36	 9 ;     CG2R51     CG2R51     CG2R61     CG2R61
    2     3    31    32	 9 ;     NG2R51     CG2R51     CG2R61     CG2R61
    2     3    31    36	 9 ;     NG2R51     CG2R51     CG2R61     CG2R61
    3     4     5     1	 9 ;     CG2R51     CG2R51     CG2R51     CG2R51
    3     4     5    38	 9 ;     CG2R51     CG2R51     CG2R51      HGR51
   37     4     5     1	 9 ;      HGR51     CG2R51     CG2R51     CG2R51
   37     4     5    38	 9 ;      HGR51     CG2R51     CG2R51      HGR51
    1     6    11    10	 9 ;     CG2R51     CG2R61     CG2R61     CG2R61
    1     6    11    42	 9 ;     CG2R51     CG2R61     CG2R61      HGR61
    7     6    11    10	 9 ;     CG2R61     CG2R61     CG2R61     CG2R61
    7     6    11    42	 9 ;     CG2R61     CG2R61     CG2R61      HGR61
    1     6     7     8	 9 ;     CG2R51     CG2R61     CG2R61     CG2R61
    1     6     7    39	 9 ;     CG2R51     CG2R61     CG2R61      HGR61
   11     6     7     8	 9 ;     CG2R61     CG2R61     CG2R61     CG2R61
   11     6     7    39	 9 ;     CG2R61     CG2R61     CG2R61      HGR61
    6     7     8     9	 9 ;     CG2R61     CG2R61     CG2R61     CG2R61
    6     7     8    40	 9 ;     CG2R61     CG2R61     CG2R61      HGR61
   39     7     8     9	 9 ;      HGR61     CG2R61     CG2R61     CG2R61
   39     7     8    40	 9 ;      HGR61     CG2R61     CG2R61      HGR61
    7     8     9    10	 9 ;     CG2R61     CG2R61     CG2R61     CG2R61
    7     8     9    12	 9 ;     CG2R61     CG2R61     CG2R61      CG2O1
   40     8     9    10	 9 ;      HGR61     CG2R61     CG2R61     CG2R61
   40     8     9    12	 9 ;      HGR61     CG2R61     CG2R61      CG2O1
    8     9    10    11	 9 ;     CG2R61     CG2R61     CG2R61     CG2R61
    8     9    10    41	 9 ;     CG2R61     CG2R61     CG2R61      HGR61
   12     9    10    11	 9 ;      CG2O1     CG2R61     CG2R61     CG2R61
   12     9    10    41	 9 ;      CG2O1     CG2R61     CG2R61      HGR61
   10     9    12    13	 9 ;     CG2R61     CG2R61      CG2O1      OG2D1
   10     9    12    14	 9 ;     CG2R61     CG2R61      CG2O1      NG2S1
    8     9    12    13	 9 ;     CG2R61     CG2R61      CG2O1      OG2D1
    8     9    12    14	 9 ;     CG2R61     CG2R61      CG2O1      NG2S1
    9    10    11     6	 9 ;     CG2R61     CG2R61     CG2R61     CG2R61
    9    10    11    42	 9 ;     CG2R61     CG2R61     CG2R61      HGR61
   41    10    11     6	 9 ;      HGR61     CG2R61     CG2R61     CG2R61
   41    10    11    42	 9 ;      HGR61     CG2R61     CG2R61      HGR61
    9    12    14    15	 9 ;     CG2R61      CG2O1      NG2S1       HGP1
    9    12    14    16	 9 ;     CG2R61      CG2O1      NG2S1      CG321
   13    12    14    15	 9 ;      OG2D1      CG2O1      NG2S1       HGP1
   13    12    14    16	 9 ;      OG2D1      CG2O1      NG2S1      CG321
   12    14    16    17	 9 ;      CG2O1      NG2S1      CG321      CG321
   12    14    16    43	 9 ;      CG2O1      NG2S1      CG321       HGA2
   12    14    16    44	 9 ;      CG2O1      NG2S1      CG321       HGA2
   15    14    16    17	 9 ;       HGP1      NG2S1      CG321      CG321
   15    14    16    43	 9 ;       HGP1      NG2S1      CG321       HGA2
   15    14    16    44	 9 ;       HGP1      NG2S1      CG321       HGA2
   14    16    17    18	 9 ;      NG2S1      CG321      CG321      CG321
   14    16    17    45	 9 ;      NG2S1      CG321      CG321       HGA2
   14    16    17    46	 9 ;      NG2S1      CG321      CG321       HGA2
   43    16    17    18	 9 ;       HGA2      CG321      CG321      CG321
   43    16    17    45	 9 ;       HGA2      CG321      CG321       HGA2
   43    16    17    46	 9 ;       HGA2      CG321      CG321       HGA2
   44    16    17    18	 9 ;       HGA2      CG321      CG321      CG321
   44    16    17    45	 9 ;       HGA2      CG321      CG321       HGA2
   44    16    17    46	 9 ;       HGA2      CG321      CG321       HGA2
   16    17    18    19	 9 ;      CG321      CG321      CG321      CG331
   16    17    18    47	 9 ;      CG321      CG321      CG321       HGA2
   16    17    18    48	 9 ;      CG321      CG321      CG321       HGA2
   45    17    18    19	 9 ;       HGA2      CG321      CG321      CG331
   45    17    18    47	 9 ;       HGA2      CG321      CG321       HGA2
   45    17    18    48	 9 ;       HGA2      CG321      CG321       HGA2
   46    17    18    19	 9 ;       HGA2      CG321      CG321      CG331
   46    17    18    47	 9 ;       HGA2      CG321      CG321       HGA2
   46    17    18    48	 9 ;       HGA2      CG321      CG321       HGA2
   17    18    19    49	 9 ;      CG321      CG321      CG331       HGA3
   17    18    19    50	 9 ;      CG321      CG321      CG331       HGA3
   17    18    19    51	 9 ;      CG321      CG321      CG331       HGA3
   47    18    19    49	 9 ;       HGA2      CG321      CG331       HGA3
   47    18    19    50	 9 ;       HGA2      CG321      CG331       HGA3
   47    18    19    51	 9 ;       HGA2      CG321      CG331       HGA3
   48    18    19    49	 9 ;       HGA2      CG321      CG331       HGA3
   48    18    19    50	 9 ;       HGA2      CG321      CG331       HGA3
   48    18    19    51	 9 ;       HGA2      CG321      CG331       HGA3
    2    20    21    27	 9 ;     NG2R51      CG321      CG311     CG2DC2
    2    20    21    22	 9 ;     NG2R51      CG321      CG311      NG311
    2    20    21    62	 9 ;     NG2R51      CG321      CG311       HGA1
   52    20    21    27	 9 ;       HGA2      CG321      CG311     CG2DC2
   52    20    21    22	 9 ;       HGA2      CG321      CG311      NG311
   52    20    21    62	 9 ;       HGA2      CG321      CG311       HGA1
   53    20    21    27	 9 ;       HGA2      CG321      CG311     CG2DC2
   53    20    21    22	 9 ;       HGA2      CG321      CG311      NG311
   53    20    21    62	 9 ;       HGA2      CG321      CG311       HGA1
   20    21    27    26	 9 ;      CG321      CG311     CG2DC2     CG2DC2
   20    21    27    56	 9 ;      CG321      CG311     CG2DC2       HGA4
   22    21    27    26	 9 ;      NG311      CG311     CG2DC2     CG2DC2
   22    21    27    56	 9 ;      NG311      CG311     CG2DC2       HGA4
   62    21    27    26	 9 ;       HGA1      CG311     CG2DC2     CG2DC2
   62    21    27    56	 9 ;       HGA1      CG311     CG2DC2       HGA4
   20    21    22    24	 9 ;      CG321      CG311      NG311     HGPAM1
   20    21    22    23	 9 ;      CG321      CG311      NG311     CG2D1O
   27    21    22    24	 9 ;     CG2DC2      CG311      NG311     HGPAM1
   27    21    22    23	 9 ;     CG2DC2      CG311      NG311     CG2D1O
   62    21    22    24	 9 ;       HGA1      CG311      NG311     HGPAM1
   62    21    22    23	 9 ;       HGA1      CG311      NG311     CG2D1O
   21    22    23    25	 9 ;      CG311      NG311     CG2D1O     CG2DC1
   21    22    23    28	 9 ;      CG311      NG311     CG2D1O      NG321
   24    22    23    25	 9 ;     HGPAM1      NG311     CG2D1O     CG2DC1
   24    22    23    28	 9 ;     HGPAM1      NG311     CG2D1O      NG321
   22    23    25    26	 9 ;      NG311     CG2D1O     CG2DC1     CG2DC2
   22    23    25    54	 9 ;      NG311     CG2D1O     CG2DC1       HGA4
   28    23    25    26	 9 ;      NG321     CG2D1O     CG2DC1     CG2DC2
   28    23    25    54	 9 ;      NG321     CG2D1O     CG2DC1       HGA4
   22    23    28    30	 9 ;      NG311     CG2D1O      NG321     HGPAM2
   22    23    28    29	 9 ;      NG311     CG2D1O      NG321     HGPAM2
   25    23    28    30	 9 ;     CG2DC1     CG2D1O      NG321     HGPAM2
   25    23    28    29	 9 ;     CG2DC1     CG2D1O      NG321     HGPAM2
   23    25    26    27	 9 ;     CG2D1O     CG2DC1     CG2DC2     CG2DC2
   23    25    26    55	 9 ;     CG2D1O     CG2DC1     CG2DC2       HGA4
   54    25    26    27	 9 ;       HGA4     CG2DC1     CG2DC2     CG2DC2
   54    25    26    55	 9 ;       HGA4     CG2DC1     CG2DC2       HGA4
   25    26    27    21	 9 ;     CG2DC1     CG2DC2     CG2DC2      CG311
   25    26    27    56	 9 ;     CG2DC1     CG2DC2     CG2DC2       HGA4
   55    26    27    21	 9 ;       HGA4     CG2DC2     CG2DC2      CG311
   55    26    27    56	 9 ;       HGA4     CG2DC2     CG2DC2       HGA4
    3    31    32    33	 9 ;     CG2R51     CG2R61     CG2R61     CG2R61
    3    31    32    57	 9 ;     CG2R51     CG2R61     CG2R61      HGR61
   36    31    32    33	 9 ;     CG2R61     CG2R61     CG2R61     CG2R61
   36    31    32    57	 9 ;     CG2R61     CG2R61     CG2R61      HGR61
    3    31    36    35	 9 ;     CG2R51     CG2R61     CG2R61     CG2R61
    3    31    36    61	 9 ;     CG2R51     CG2R61     CG2R61      HGR61
   32    31    36    35	 9 ;     CG2R61     CG2R61     CG2R61     CG2R61
   32    31    36    61	 9 ;     CG2R61     CG2R61     CG2R61      HGR61
   31    32    33    34	 9 ;     CG2R61     CG2R61     CG2R61     CG2R61
   31    32    33    58	 9 ;     CG2R61     CG2R61     CG2R61      HGR61
   57    32    33    34	 9 ;      HGR61     CG2R61     CG2R61     CG2R61
   57    32    33    58	 9 ;      HGR61     CG2R61     CG2R61      HGR61
   32    33    34    35	 9 ;     CG2R61     CG2R61     CG2R61     CG2R61
   32    33    34    59	 9 ;     CG2R61     CG2R61     CG2R61      HGR61
   58    33    34    35	 9 ;      HGR61     CG2R61     CG2R61     CG2R61
   58    33    34    59	 9 ;      HGR61     CG2R61     CG2R61      HGR61
   33    34    35    36	 9 ;     CG2R61     CG2R61     CG2R61     CG2R61
   33    34    35    60	 9 ;     CG2R61     CG2R61     CG2R61      HGR61
   59    34    35    36	 9 ;      HGR61     CG2R61     CG2R61     CG2R61
   59    34    35    60	 9 ;      HGR61     CG2R61     CG2R61      HGR61
   34    35    36    31	 9 ;     CG2R61     CG2R61     CG2R61     CG2R61
   34    35    36    61	 9 ;     CG2R61     CG2R61     CG2R61      HGR61
   60    35    36    31	 9 ;      HGR61     CG2R61     CG2R61     CG2R61
   60    35    36    61	 9 ;      HGR61     CG2R61     CG2R61      HGR61

[ dihedrals ]
;	ai	  aj	ak	  al funct			  c0			c1			  c2			c3
   12     9    14    13	 2
   23    25    22    28	 2

