GROwing Monsters And Cloning Shrimps
   22
    1LIG     C1    1  -1.021   0.003  -1.598
    1LIG     C2    2  -1.025   0.136  -1.557
    1LIG     C3    3  -1.139   0.212  -1.581
    1LIG     C4    4  -1.250   0.157  -1.648
    1LIG     C5    5  -1.245   0.022  -1.687
    1LIG     C6    6  -1.130  -0.054  -1.663
    1LIG     C7    7  -1.373   0.239  -1.676
    1LIG     C8    8  -1.458   0.265  -1.551
    1LIG      N    9  -1.581   0.181  -1.553
    1LIG     H1   10  -1.666   0.236  -1.535
    1LIG     H2   11  -1.593   0.133  -1.643
    1LIG     H3   12  -1.576   0.108  -1.480
    1LIG      O   13  -0.912  -0.075  -1.577
    1LIG     H4   14  -0.915  -0.152  -1.637
    1LIG     H5   15  -0.944   0.177  -1.508
    1LIG     H6   16  -1.143   0.311  -1.550
    1LIG     H7   17  -1.326  -0.021  -1.734
    1LIG     H8   18  -1.127  -0.153  -1.693
    1LIG     H9   19  -1.433   0.188  -1.748
    1LIG    H10   20  -1.340   0.335  -1.712
    1LIG    H11   21  -1.487   0.368  -1.549
    1LIG    H12   22  -1.401   0.240  -1.464
   0.00000   0.00000   0.00000
