; Created by cgenff_charmm2gmx.py

[ moleculetype ]
; Name			   nrexcl
LIG				 3

[ atoms ]
;	 nr		  type	resnr residue  atom   cgnr	   charge		mass  typeB    chargeB		massB
; residue	 1 LIG rtp LIG q	qsum
     1     CG2R61      1    LIG     C1      1      0.108     12.011   ;
     2     CG2R61      1    LIG     C2      2     -0.113     12.011   ;
     3     CG2R61      1    LIG     C3      3     -0.119     12.011   ;
     4     CG2R61      1    LIG     C4      4     -0.127     12.011   ;
     5     CG2R61      1    LIG     C5      5     -0.119     12.011   ;
     6     CG2R61      1    LIG     C6      6     -0.113     12.011   ;
     7      CG321      1    LIG     C7      7      0.000     12.011   ;
     8      CG324      1    LIG     C8      8      0.094     12.011   ;
     9      NG3P3      1    LIG      N      9     -0.309     14.007   ;
    10       HGP2      1    LIG     H1     10      0.328      1.008   ;
    11       HGP2      1    LIG     H2     11      0.328      1.008   ;
    12       HGP2      1    LIG     H3     12      0.328      1.008   ;
    13      OG311      1    LIG      O     13     -0.531     15.999   ;
    14       HGP1      1    LIG     H4     14      0.421      1.008   ;
    15      HGR61      1    LIG     H5     15      0.116      1.008   ;
    16      HGR61      1    LIG     H6     16      0.116      1.008   ;
    17      HGR61      1    LIG     H7     17      0.116      1.008   ;
    18      HGR61      1    LIG     H8     18      0.116      1.008   ;
    19       HGA2      1    LIG     H9     19      0.090      1.008   ;
    20       HGA2      1    LIG    H10     20      0.090      1.008   ;
    21       HGA2      1    LIG    H11     21      0.090      1.008   ;
    22       HGA2      1    LIG    H12     22      0.090      1.008   ;

[ bonds ]
;	ai	  aj funct			  c0			c1			  c2			c3
    1     6	 1 ;      CG2R61     CG2R61
    1    13	 1 ;      CG2R61      OG311
    1     2	 1 ;      CG2R61     CG2R61
    2     3	 1 ;      CG2R61     CG2R61
    2    15	 1 ;      CG2R61      HGR61
    3     4	 1 ;      CG2R61     CG2R61
    3    16	 1 ;      CG2R61      HGR61
    4     5	 1 ;      CG2R61     CG2R61
    4     7	 1 ;      CG2R61      CG321
    5     6	 1 ;      CG2R61     CG2R61
    5    17	 1 ;      CG2R61      HGR61
    6    18	 1 ;      CG2R61      HGR61
    7     8	 1 ;       CG321      CG324
    7    19	 1 ;       CG321       HGA2
    7    20	 1 ;       CG321       HGA2
    8     9	 1 ;       CG324      NG3P3
    8    21	 1 ;       CG324       HGA2
    8    22	 1 ;       CG324       HGA2
    9    11	 1 ;       NG3P3       HGP2
    9    10	 1 ;       NG3P3       HGP2
    9    12	 1 ;       NG3P3       HGP2
   13    14	 1 ;       OG311       HGP1

[ pairs ]
;	ai	  aj funct			  c0			c1			  c2			c3
    1     4	 1
    1    16	 1
    1    17	 1
    2     5	 1
    2    18	 1
    2    14	 1
    2     7	 1
    3     6	 1
    3    13	 1
    3    17	 1
    3     8	 1
    3    19	 1
    3    20	 1
    4    15	 1
    4    18	 1
    4     9	 1
    4    21	 1
    4    22	 1
    5    13	 1
    5    16	 1
    5     8	 1
    5    19	 1
    5    20	 1
    6    14	 1
    6    15	 1
    6     7	 1
    7    16	 1
    7    17	 1
    7    11	 1
    7    10	 1
    7    12	 1
    9    19	 1
    9    20	 1
   10    21	 1
   10    22	 1
   11    21	 1
   11    22	 1
   12    21	 1
   12    22	 1
   13    18	 1
   13    15	 1
   15    16	 1
   17    18	 1
   19    21	 1
   19    22	 1
   20    21	 1
   20    22	 1

[ angles ]
;	ai	  aj	ak funct			c0			  c1			c2			  c3
    6     1    13	5 ;     CG2R61     CG2R61      OG311
    6     1     2	5 ;     CG2R61     CG2R61     CG2R61
   13     1     2	5 ;      OG311     CG2R61     CG2R61
    1     2     3	5 ;     CG2R61     CG2R61     CG2R61
    1     2    15	5 ;     CG2R61     CG2R61      HGR61
    3     2    15	5 ;     CG2R61     CG2R61      HGR61
    4     3     2	5 ;     CG2R61     CG2R61     CG2R61
    4     3    16	5 ;     CG2R61     CG2R61      HGR61
    2     3    16	5 ;     CG2R61     CG2R61      HGR61
    5     4     7	5 ;     CG2R61     CG2R61      CG321
    5     4     3	5 ;     CG2R61     CG2R61     CG2R61
    7     4     3	5 ;      CG321     CG2R61     CG2R61
    6     5     4	5 ;     CG2R61     CG2R61     CG2R61
    6     5    17	5 ;     CG2R61     CG2R61      HGR61
    4     5    17	5 ;     CG2R61     CG2R61      HGR61
    5     6     1	5 ;     CG2R61     CG2R61     CG2R61
    5     6    18	5 ;     CG2R61     CG2R61      HGR61
    1     6    18	5 ;     CG2R61     CG2R61      HGR61
    4     7     8	5 ;     CG2R61      CG321      CG324
    4     7    19	5 ;     CG2R61      CG321       HGA2
    4     7    20	5 ;     CG2R61      CG321       HGA2
    8     7    19	5 ;      CG324      CG321       HGA2
    8     7    20	5 ;      CG324      CG321       HGA2
   19     7    20	5 ;       HGA2      CG321       HGA2
    7     8     9	5 ;      CG321      CG324      NG3P3
    7     8    21	5 ;      CG321      CG324       HGA2
    7     8    22	5 ;      CG321      CG324       HGA2
    9     8    21	5 ;      NG3P3      CG324       HGA2
    9     8    22	5 ;      NG3P3      CG324       HGA2
   21     8    22	5 ;       HGA2      CG324       HGA2
   11     9     8	5 ;       HGP2      NG3P3      CG324
   11     9    10	5 ;       HGP2      NG3P3       HGP2
   11     9    12	5 ;       HGP2      NG3P3       HGP2
    8     9    10	5 ;      CG324      NG3P3       HGP2
    8     9    12	5 ;      CG324      NG3P3       HGP2
   10     9    12	5 ;       HGP2      NG3P3       HGP2
   14    13     1	5 ;       HGP1      OG311     CG2R61

[ dihedrals ]
;	ai	  aj	ak	  al funct			  c0			c1			  c2			c3			  c4			c5
   13     1     6     5	 9 ;      OG311     CG2R61     CG2R61     CG2R61
   13     1     6    18	 9 ;      OG311     CG2R61     CG2R61      HGR61
    2     1     6     5	 9 ;     CG2R61     CG2R61     CG2R61     CG2R61
    2     1     6    18	 9 ;     CG2R61     CG2R61     CG2R61      HGR61
    6     1    13    14	 9 ;     CG2R61     CG2R61      OG311       HGP1
    2     1    13    14	 9 ;     CG2R61     CG2R61      OG311       HGP1
    6     1     2     3	 9 ;     CG2R61     CG2R61     CG2R61     CG2R61
    6     1     2    15	 9 ;     CG2R61     CG2R61     CG2R61      HGR61
   13     1     2     3	 9 ;      OG311     CG2R61     CG2R61     CG2R61
   13     1     2    15	 9 ;      OG311     CG2R61     CG2R61      HGR61
    1     2     3     4	 9 ;     CG2R61     CG2R61     CG2R61     CG2R61
    1     2     3    16	 9 ;     CG2R61     CG2R61     CG2R61      HGR61
   15     2     3     4	 9 ;      HGR61     CG2R61     CG2R61     CG2R61
   15     2     3    16	 9 ;      HGR61     CG2R61     CG2R61      HGR61
    2     3     4     5	 9 ;     CG2R61     CG2R61     CG2R61     CG2R61
    2     3     4     7	 9 ;     CG2R61     CG2R61     CG2R61      CG321
   16     3     4     5	 9 ;      HGR61     CG2R61     CG2R61     CG2R61
   16     3     4     7	 9 ;      HGR61     CG2R61     CG2R61      CG321
    7     4     5     6	 9 ;      CG321     CG2R61     CG2R61     CG2R61
    7     4     5    17	 9 ;      CG321     CG2R61     CG2R61      HGR61
    3     4     5     6	 9 ;     CG2R61     CG2R61     CG2R61     CG2R61
    3     4     5    17	 9 ;     CG2R61     CG2R61     CG2R61      HGR61
    5     4     7     8	 9 ;     CG2R61     CG2R61      CG321      CG324
    5     4     7    19	 9 ;     CG2R61     CG2R61      CG321       HGA2
    5     4     7    20	 9 ;     CG2R61     CG2R61      CG321       HGA2
    3     4     7     8	 9 ;     CG2R61     CG2R61      CG321      CG324
    3     4     7    19	 9 ;     CG2R61     CG2R61      CG321       HGA2
    3     4     7    20	 9 ;     CG2R61     CG2R61      CG321       HGA2
    4     5     6     1	 9 ;     CG2R61     CG2R61     CG2R61     CG2R61
    4     5     6    18	 9 ;     CG2R61     CG2R61     CG2R61      HGR61
   17     5     6     1	 9 ;      HGR61     CG2R61     CG2R61     CG2R61
   17     5     6    18	 9 ;      HGR61     CG2R61     CG2R61      HGR61
    4     7     8     9	 9 ;     CG2R61      CG321      CG324      NG3P3
    4     7     8    21	 9 ;     CG2R61      CG321      CG324       HGA2
    4     7     8    22	 9 ;     CG2R61      CG321      CG324       HGA2
   19     7     8     9	 9 ;       HGA2      CG321      CG324      NG3P3
   19     7     8    21	 9 ;       HGA2      CG321      CG324       HGA2
   19     7     8    22	 9 ;       HGA2      CG321      CG324       HGA2
   20     7     8     9	 9 ;       HGA2      CG321      CG324      NG3P3
   20     7     8    21	 9 ;       HGA2      CG321      CG324       HGA2
   20     7     8    22	 9 ;       HGA2      CG321      CG324       HGA2
    7     8     9    11	 9 ;      CG321      CG324      NG3P3       HGP2
    7     8     9    10	 9 ;      CG321      CG324      NG3P3       HGP2
    7     8     9    12	 9 ;      CG321      CG324      NG3P3       HGP2
   21     8     9    11	 9 ;       HGA2      CG324      NG3P3       HGP2
   21     8     9    10	 9 ;       HGA2      CG324      NG3P3       HGP2
   21     8     9    12	 9 ;       HGA2      CG324      NG3P3       HGP2
   22     8     9    11	 9 ;       HGA2      CG324      NG3P3       HGP2
   22     8     9    10	 9 ;       HGA2      CG324      NG3P3       HGP2
   22     8     9    12	 9 ;       HGA2      CG324      NG3P3       HGP2

