Gromacs Runs On Most of All Computer Systems
   42
    1LIG     C1    1  -1.324   0.517  -1.794
    1LIG     O5    2  -1.310   0.265  -1.903
    1LIG     C3    3  -1.152   0.191  -1.743
    1LIG     C4    4  -1.078   0.221  -1.628
    1LIG     C5    5  -1.151   0.060  -1.795
    1LIG     C6    6  -1.003   0.120  -1.565
    1LIG     C7    7  -1.075  -0.039  -1.733
    1LIG     C8    8  -1.002  -0.008  -1.618
    1LIG     C9    9  -1.225   0.434  -1.758
    1LIG    C10   10  -1.103   0.465  -1.677
    1LIG    C11   11  -1.236   0.294  -1.810
    1LIG    C12   12  -1.082   0.360  -1.569
    1LIG     N1   13  -1.439   0.680  -1.665
    1LIG     O4   14  -1.258   0.745  -1.793
    1LIG     C2   15  -1.334   0.659  -1.752
    1LIG     H3   16  -1.511   0.610  -1.670
    1LIG    C13   17  -1.478   0.818  -1.630
    1LIG    C15   18  -1.538   0.830  -1.488
    1LIG    C16   19  -1.629   0.953  -1.470
    1LIG    C17   20  -1.619   0.705  -1.451
    1LIG     O2   21  -1.675   0.792  -1.774
    1LIG    C14   22  -1.583   0.862  -1.734
    1LIG     O3   23  -1.559   0.985  -1.786
    1LIG     H2   24  -1.529   1.049  -1.718
    1LIG     O1   25  -0.930  -0.108  -1.561
    1LIG     H1   26  -0.866  -0.070  -1.499
    1LIG     H4   27  -1.399   0.479  -1.854
    1LIG     H5   28  -1.206   0.038  -1.879
    1LIG     H6   29  -0.949   0.141  -1.479
    1LIG     H7   30  -1.073  -0.134  -1.771
    1LIG     H8   31  -1.115   0.561  -1.631
    1LIG     H9   32  -1.018   0.465  -1.742
    1LIG    H10   33  -1.162   0.366  -1.498
    1LIG    H11   34  -0.988   0.379  -1.520
    1LIG     HA   35  -1.391   0.880  -1.632
    1LIG     HB   36  -1.454   0.842  -1.423
    1LIG   HG11   37  -1.714   0.944  -1.534
    1LIG   HG12   38  -1.575   1.041  -1.495
    1LIG   HG13   39  -1.662   0.958  -1.368
    1LIG   HG21   40  -1.702   0.695  -1.517
    1LIG   HG22   41  -1.654   0.713  -1.350
    1LIG   HG23   42  -1.556   0.618  -1.460
   0.00000   0.00000   0.00000
