God Rules Over Mankind, Animals, Cosmos and Such
   50
    1LIG     C1    1  -1.248   0.309  -1.396
    1LIG     C2    2  -1.366   0.339  -1.467
    1LIG     C3    3  -1.387   0.464  -1.529
    1LIG     C4    4  -1.288   0.561  -1.516
    1LIG     O1    5  -1.296   0.687  -1.571
    1LIG     C5    6  -1.412   0.723  -1.636
    1LIG     C6    7  -1.519   0.636  -1.657
    1LIG     C7    8  -1.633   0.685  -1.725
    1LIG     C8    9  -1.638   0.817  -1.771
    1LIG     C9   10  -1.529   0.901  -1.749
    1LIG    C10   11  -1.417   0.854  -1.681
    1LIG    C11   12  -1.514   0.492  -1.607
    1LIG     N1   13  -1.632   0.466  -1.520
    1LIG     HN   14  -1.653   0.508  -1.430
    1LIG    C12   15  -1.702   0.380  -1.585
    1LIG     O2   16  -1.657   0.329  -1.701
    1LIG    C13   17  -1.531   0.393  -1.724
    1LIG     N2   18  -1.820   0.329  -1.546
    1LIG    C14   19  -1.171   0.535  -1.445
    1LIG    C15   20  -1.151   0.410  -1.387
    1LIG     H1   21  -1.843   0.238  -1.584
    1LIG     H2   22  -1.840   0.340  -1.447
    1LIG     O3   23  -1.743   0.873  -1.838
    1LIG    C16   24  -1.729   1.011  -1.873
    1LIG    C17   25  -1.227   0.175  -1.334
    1LIG    C18   26  -1.326   0.075  -1.340
    1LIG    C19   27  -1.306  -0.050  -1.282
    1LIG     CL   28  -1.430  -0.169  -1.290
    1LIG    C20   29  -1.186  -0.080  -1.218
    1LIG    C21   30  -1.086   0.017  -1.211
    1LIG    C22   31  -1.107   0.143  -1.267
    1LIG     HC   32  -1.443   0.264  -1.474
    1LIG    HC1   33  -1.717   0.620  -1.742
    1LIG    HC2   34  -1.533   1.003  -1.784
    1LIG    HC3   35  -1.333   0.920  -1.664
    1LIG    HN2   36  -1.582   0.392  -1.474
    1LIG    HC4   37  -1.753   0.460  -1.638
    1LIG    HC5   38  -1.532   0.446  -1.819
    1LIG    HC6   39  -1.451   0.319  -1.723
    1LIG    HN1   40  -1.887   0.390  -1.590
    1LIG    HC7   41  -1.095   0.611  -1.436
    1LIG    HC8   42  -1.059   0.391  -1.333
    1LIG    HC9   43  -1.419   0.096  -1.390
    1LIG   HC10   44  -1.171  -0.177  -1.174
    1LIG   HC11   45  -0.993  -0.005  -1.162
    1LIG   HC12   46  -1.030   0.218  -1.260
    1LIG   HC13   47  -1.819   1.045  -1.924
    1LIG   HC14   48  -1.643   1.023  -1.940
    1LIG   HC15   49  -1.713   1.070  -1.783
    1LIG    LP1   50  -1.548  -0.282  -1.298
   0.00000   0.00000   0.00000
