GROningen MAchine for Chemical Simulation
   26
    1LIG     O2    1   8.469   1.730   9.705
    1LIG     C1    2   8.361   1.719   9.492
    1LIG     C2    3   8.400   1.782   9.619
    1LIG     O3    4   8.288   1.634   9.240
    1LIG     C3    5   8.444   1.455   9.243
    1LIG     C4    6   8.544   1.386   9.316
    1LIG     C5    7   8.398   1.406   9.120
    1LIG     C6    8   8.592   1.266   9.262
    1LIG     C7    9   8.450   1.288   9.068
    1LIG     C8   10   8.547   1.218   9.139
    1LIG     C9   11   8.441   1.636   9.423
    1LIG    C10   12   8.581   1.593   9.453
    1LIG    C11   13   8.382   1.580   9.297
    1LIG    C12   14   8.593   1.441   9.447
    1LIG     O1   15   8.684   1.188   9.326
    1LIG     H1   16   8.705   1.111   9.271
    1LIG     O4   17   8.348   1.906   9.631
    1LIG    H10   18   8.413   1.977   9.644
    1LIG     H2   19   8.268   1.741   9.453
    1LIG     H3   20   8.325   1.458   9.069
    1LIG     H4   21   8.417   1.253   8.977
    1LIG     H5   22   8.585   1.130   9.101
    1LIG     H6   23   8.607   1.626   9.552
    1LIG     H7   24   8.647   1.636   9.381
    1LIG     H8   25   8.696   1.414   9.460
    1LIG     H9   26   8.533   1.400   9.525
   0.00000   0.00000   0.00000
