Giant Rising Ordinary Mutants for A Clerical Setup
   91
    1LIG     C1    1  -1.822   0.383  -1.530
    1LIG     O1    2  -1.863   0.286  -1.592
    1LIG     N1    3  -1.886   0.437  -1.420
    1LIG     H1    4  -1.837   0.504  -1.364
    1LIG     C2    5  -1.697   0.453  -1.577
    1LIG     C3    6  -1.570   0.418  -1.532
    1LIG     C4    7  -1.459   0.499  -1.562
    1LIG     C5    8  -1.474   0.611  -1.644
    1LIG     C6    9  -1.600   0.643  -1.694
    1LIG     C7   10  -1.712   0.566  -1.658
    1LIG     C8   11  -1.329   0.463  -1.501
    1LIG     O2   12  -1.226   0.486  -1.563
    1LIG     N2   13  -1.334   0.399  -1.379
    1LIG     H2   14  -1.425   0.368  -1.344
    1LIG     C9   15  -1.217   0.336  -1.320
    1LIG    C10   16  -1.170   0.412  -1.196
    1LIG    C11   17  -1.244   0.188  -1.294
    1LIG    C12   18  -1.305   0.111  -1.394
    1LIG    C13   19  -1.333  -0.024  -1.374
    1LIG    C14   20  -1.301  -0.084  -1.252
    1LIG    C15   21  -1.242  -0.009  -1.151
    1LIG    C16   22  -1.215   0.127  -1.171
    1LIG     N3   23  -1.614   0.761  -1.774
    1LIG    C17   24  -1.667   0.747  -1.911
    1LIG      S   25  -1.638   0.909  -1.694
    1LIG     O3   26  -1.508   0.955  -1.648
    1LIG     O4   27  -1.748   0.897  -1.602
    1LIG    C18   28  -1.686   1.017  -1.828
    1LIG    C19   29  -2.027   0.415  -1.384
    1LIG    C20   30  -2.066   0.439  -1.235
    1LIG     O5   31  -2.206   0.428  -1.212
    1LIG    C21   32  -2.257   0.315  -1.155
    1LIG    C22   33  -2.197   0.282  -1.033
    1LIG    C23   34  -2.234   0.167  -0.965
    1LIG     F1   35  -2.173   0.135  -0.850
    1LIG    C24   36  -2.333   0.084  -1.015
    1LIG    C25   37  -2.397   0.119  -1.133
    1LIG     F2   38  -2.495   0.042  -1.181
    1LIG    C26   39  -2.360   0.235  -1.203
    1LIG    C27   40  -2.130   0.490  -1.474
    1LIG    C28   41  -2.079   0.620  -1.541
    1LIG    C29   42  -2.156   0.746  -1.490
    1LIG    C30   43  -2.148   0.769  -1.337
    1LIG     O6   44  -2.281   0.772  -1.284
    1LIG    C31   45  -2.389   0.745  -1.373
    1LIG    C32   46  -2.463   0.616  -1.340
    1LIG    C33   47  -2.484   0.863  -1.388
    1LIG     O7   48  -2.121   0.863  -1.567
    1LIG    C34   49  -2.184   0.876  -1.693
    1LIG     O8   50  -2.169   0.396  -1.575
    1LIG     H3   51  -2.263   0.412  -1.596
    1LIG     HC   52  -1.556   0.328  -1.473
    1LIG    HC1   53  -1.388   0.673  -1.668
    1LIG    HC2   54  -1.809   0.595  -1.694
    1LIG    HC3   55  -1.137   0.341  -1.394
    1LIG    HC4   56  -1.330   0.157  -1.489
    1LIG    HC5   57  -1.378  -0.082  -1.453
    1LIG    HC6   58  -1.323  -0.189  -1.237
    1LIG    HC7   59  -1.218  -0.056  -1.056
    1LIG    HC8   60  -1.172   0.185  -1.091
    1LIG    HC9   61  -2.046   0.309  -1.402
    1LIG   HC10   62  -2.034   0.540  -1.207
    1LIG   HC11   63  -2.013   0.367  -1.172
    1LIG   HC12   64  -2.121   0.347  -0.992
    1LIG   HC13   65  -2.360  -0.007  -0.963
    1LIG   HC14   66  -2.412   0.261  -1.294
    1LIG   HC15   67  -2.217   0.514  -1.413
    1LIG   HC16   68  -2.092   0.612  -1.649
    1LIG   HC17   69  -1.973   0.633  -1.519
    1LIG   HC18   70  -2.261   0.726  -1.511
    1LIG   HC19   71  -2.091   0.689  -1.291
    1LIG   HC20   72  -2.099   0.865  -1.318
    1LIG   HC21   73  -2.345   0.730  -1.472
    1LIG   HC22   74  -1.158   0.518  -1.221
    1LIG   HC23   75  -1.075   0.372  -1.161
    1LIG   HC24   76  -1.245   0.402  -1.117
    1LIG   HC25   77  -2.150   0.967  -1.742
    1LIG   HC26   78  -2.292   0.880  -1.680
    1LIG   HC27   79  -2.159   0.790  -1.756
    1LIG   HC28   80  -2.392   0.534  -1.331
    1LIG   HC29   81  -2.534   0.593  -1.420
    1LIG   HC30   82  -2.517   0.628  -1.246
    1LIG   HC31   83  -1.659   0.643  -1.942
    1LIG   HC32   84  -1.772   0.778  -1.913
    1LIG   HC33   85  -1.609   0.809  -1.979
    1LIG   HC34   86  -2.427   0.953  -1.412
    1LIG   HC35   87  -2.538   0.878  -1.295
    1LIG   HC36   88  -2.555   0.843  -1.468
    1LIG   HC37   89  -1.692   1.120  -1.791
    1LIG   HC38   90  -1.613   1.011  -1.908
    1LIG   HC39   91  -1.784   0.986  -1.866
   0.00000   0.00000   0.00000
