; Created by cgenff_charmm2gmx.py

[ moleculetype ]
; Name			   nrexcl
LIG				 3

[ atoms ]
;	 nr		  type	resnr residue  atom   cgnr	   charge		mass  typeB    chargeB		massB
; residue	 1 LIG rtp LIG q	qsum
     1      CG2O1      1    LIG     C1      1      0.302     12.011   ;
     2      OG2D1      1    LIG     O1      2     -0.463     15.999   ;
     3      NG2S1      1    LIG     N1      3     -0.238     14.007   ;
     4       HGP1      1    LIG     H1      4      0.262      1.008   ;
     5     CG2R61      1    LIG     C2      5     -0.101     12.011   ;
     6     CG2R61      1    LIG     C3      6     -0.004     12.011   ;
     7     CG2R61      1    LIG     C4      7     -0.101     12.011   ;
     8     CG2R61      1    LIG     C5      8     -0.064     12.011   ;
     9     CG2R61      1    LIG     C6      9      0.138     12.011   ;
    10     CG2R61      1    LIG     C7     10     -0.064     12.011   ;
    11      CG2O1      1    LIG     C8     11      0.320     12.011   ;
    12      OG2D1      1    LIG     O2     12     -0.463     15.999   ;
    13      NG2S1      1    LIG     N2     13     -0.366     14.007   ;
    14       HGP1      1    LIG     H2     14      0.314      1.008   ;
    15      CG311      1    LIG     C9     15      0.138     12.011   ;
    16      CG331      1    LIG    C10     16     -0.265     12.011   ;
    17     CG2R61      1    LIG    C11     17     -0.111     12.011   ;
    18     CG2R61      1    LIG    C12     18     -0.086     12.011   ;
    19     CG2R61      1    LIG    C13     19     -0.114     12.011   ;
    20     CG2R61      1    LIG    C14     20     -0.116     12.011   ;
    21     CG2R61      1    LIG    C15     21     -0.114     12.011   ;
    22     CG2R61      1    LIG    C16     22     -0.086     12.011   ;
    23      NG301      1    LIG     N3     23     -0.228     14.007   ;
    24      CG331      1    LIG    C17     24     -0.103     12.011   ;
    25      SG3O2      1    LIG      S     25      0.397     32.060   ;
    26      OG2P1      1    LIG     O3     26     -0.388     15.999   ;
    27      OG2P1      1    LIG     O4     27     -0.388     15.999   ;
    28      CG331      1    LIG    C18     28      0.036     12.011   ;
    29      CG311      1    LIG    C19     29      0.001     12.011   ;
    30      CG321      1    LIG    C20     30      0.009     12.011   ;
    31      OG301      1    LIG     O5     31     -0.177     15.999   ;
    32     CG2R61      1    LIG    C21     32      0.384     12.011   ;
    33     CG2R61      1    LIG    C22     33     -0.410     12.011   ;
    34     CG2R66      1    LIG    C23     34      0.283     12.011   ;
    35       FGR1      1    LIG     F1     35     -0.210     18.998   ;
    36     CG2R61      1    LIG    C24     36     -0.240     12.011   ;
    37     CG2R66      1    LIG    C25     37      0.283     12.011   ;
    38       FGR1      1    LIG     F2     38     -0.210     18.998   ;
    39     CG2R61      1    LIG    C26     39     -0.410     12.011   ;
    40      CG311      1    LIG    C27     40      0.124     12.011   ;
    41      CG321      1    LIG    C28     41     -0.131     12.011   ;
    42      CG311      1    LIG    C29     42      0.097     12.011   ;
    43      CG321      1    LIG    C30     43     -0.008     12.011   ;
    44      OG301      1    LIG     O6     44     -0.346     15.999   ;
    45      CG311      1    LIG    C31     45      0.019     12.011   ;
    46      CG331      1    LIG    C32     46     -0.237     12.011   ;
    47      CG331      1    LIG    C33     47     -0.237     12.011   ;
    48      OG301      1    LIG     O7     48     -0.392     15.999   ;
    49      CG331      1    LIG    C34     49     -0.091     12.011   ;
    50      OG311      1    LIG     O8     50     -0.648     15.999   ;
    51       HGP1      1    LIG     H3     51      0.421      1.008   ;
    52      HGR61      1    LIG     HC     52      0.116      1.008   ;
    53      HGR61      1    LIG    HC1     53      0.116      1.008   ;
    54      HGR61      1    LIG    HC2     54      0.116      1.008   ;
    55       HGA1      1    LIG    HC3     55      0.090      1.008   ;
    56      HGR61      1    LIG    HC4     56      0.116      1.008   ;
    57      HGR61      1    LIG    HC5     57      0.116      1.008   ;
    58      HGR61      1    LIG    HC6     58      0.116      1.008   ;
    59      HGR61      1    LIG    HC7     59      0.116      1.008   ;
    60      HGR61      1    LIG    HC8     60      0.116      1.008   ;
    61       HGA1      1    LIG    HC9     61      0.090      1.008   ;
    62       HGA2      1    LIG   HC10     62      0.090      1.008   ;
    63       HGA2      1    LIG   HC11     63      0.090      1.008   ;
    64      HGR62      1    LIG   HC12     64      0.179      1.008   ;
    65      HGR62      1    LIG   HC13     65      0.186      1.008   ;
    66      HGR62      1    LIG   HC14     66      0.179      1.008   ;
    67       HGA1      1    LIG   HC15     67      0.090      1.008   ;
    68       HGA2      1    LIG   HC16     68      0.090      1.008   ;
    69       HGA2      1    LIG   HC17     69      0.090      1.008   ;
    70       HGA1      1    LIG   HC18     70      0.090      1.008   ;
    71       HGA2      1    LIG   HC19     71      0.090      1.008   ;
    72       HGA2      1    LIG   HC20     72      0.090      1.008   ;
    73       HGA1      1    LIG   HC21     73      0.090      1.008   ;
    74       HGA3      1    LIG   HC22     74      0.090      1.008   ;
    75       HGA3      1    LIG   HC23     75      0.090      1.008   ;
    76       HGA3      1    LIG   HC24     76      0.090      1.008   ;
    77       HGA3      1    LIG   HC25     77      0.090      1.008   ;
    78       HGA3      1    LIG   HC26     78      0.090      1.008   ;
    79       HGA3      1    LIG   HC27     79      0.090      1.008   ;
    80       HGA3      1    LIG   HC28     80      0.090      1.008   ;
    81       HGA3      1    LIG   HC29     81      0.090      1.008   ;
    82       HGA3      1    LIG   HC30     82      0.090      1.008   ;
    83       HGA3      1    LIG   HC31     83      0.090      1.008   ;
    84       HGA3      1    LIG   HC32     84      0.090      1.008   ;
    85       HGA3      1    LIG   HC33     85      0.090      1.008   ;
    86       HGA3      1    LIG   HC34     86      0.090      1.008   ;
    87       HGA3      1    LIG   HC35     87      0.090      1.008   ;
    88       HGA3      1    LIG   HC36     88      0.090      1.008   ;
    89       HGA3      1    LIG   HC37     89      0.090      1.008   ;
    90       HGA3      1    LIG   HC38     90      0.090      1.008   ;
    91       HGA3      1    LIG   HC39     91      0.090      1.008   ;

[ bonds ]
;	ai	  aj funct			  c0			c1			  c2			c3
    1     5	 1 ;       CG2O1     CG2R61
    1     2	 1 ;       CG2O1      OG2D1
    1     3	 1 ;       CG2O1      NG2S1
    3     4	 1 ;       NG2S1       HGP1
    3    29	 1 ;       NG2S1      CG311
    5     6	 1 ;      CG2R61     CG2R61
    5    10	 1 ;      CG2R61     CG2R61
    6     7	 1 ;      CG2R61     CG2R61
    6    52	 1 ;      CG2R61      HGR61
    7    11	 1 ;      CG2R61      CG2O1
    7     8	 1 ;      CG2R61     CG2R61
    8     9	 1 ;      CG2R61     CG2R61
    8    53	 1 ;      CG2R61      HGR61
    9    23	 1 ;      CG2R61      NG301
    9    10	 1 ;      CG2R61     CG2R61
   10    54	 1 ;      CG2R61      HGR61
   11    12	 1 ;       CG2O1      OG2D1
   11    13	 1 ;       CG2O1      NG2S1
   13    15	 1 ;       NG2S1      CG311
   13    14	 1 ;       NG2S1       HGP1
   15    17	 1 ;       CG311     CG2R61
   15    16	 1 ;       CG311      CG331
   15    55	 1 ;       CG311       HGA1
   16    74	 1 ;       CG331       HGA3
   16    75	 1 ;       CG331       HGA3
   16    76	 1 ;       CG331       HGA3
   17    18	 1 ;      CG2R61     CG2R61
   17    22	 1 ;      CG2R61     CG2R61
   18    19	 1 ;      CG2R61     CG2R61
   18    56	 1 ;      CG2R61      HGR61
   19    20	 1 ;      CG2R61     CG2R61
   19    57	 1 ;      CG2R61      HGR61
   20    21	 1 ;      CG2R61     CG2R61
   20    58	 1 ;      CG2R61      HGR61
   21    22	 1 ;      CG2R61     CG2R61
   21    59	 1 ;      CG2R61      HGR61
   22    60	 1 ;      CG2R61      HGR61
   23    24	 1 ;       NG301      CG331
   23    25	 1 ;       NG301      SG3O2
   24    83	 1 ;       CG331       HGA3
   24    84	 1 ;       CG331       HGA3
   24    85	 1 ;       CG331       HGA3
   25    26	 1 ;       SG3O2      OG2P1
   25    28	 1 ;       SG3O2      CG331
   25    27	 1 ;       SG3O2      OG2P1
   28    89	 1 ;       CG331       HGA3
   28    90	 1 ;       CG331       HGA3
   28    91	 1 ;       CG331       HGA3
   29    40	 1 ;       CG311      CG311
   29    30	 1 ;       CG311      CG321
   29    61	 1 ;       CG311       HGA1
   30    31	 1 ;       CG321      OG301
   30    62	 1 ;       CG321       HGA2
   30    63	 1 ;       CG321       HGA2
   31    32	 1 ;       OG301     CG2R61
   32    33	 1 ;      CG2R61     CG2R61
   32    39	 1 ;      CG2R61     CG2R61
   33    34	 1 ;      CG2R61     CG2R66
   33    64	 1 ;      CG2R61      HGR62
   34    35	 1 ;      CG2R66       FGR1
   34    36	 1 ;      CG2R66     CG2R61
   36    37	 1 ;      CG2R61     CG2R66
   36    65	 1 ;      CG2R61      HGR62
   37    39	 1 ;      CG2R66     CG2R61
   37    38	 1 ;      CG2R66       FGR1
   39    66	 1 ;      CG2R61      HGR62
   40    41	 1 ;       CG311      CG321
   40    50	 1 ;       CG311      OG311
   40    67	 1 ;       CG311       HGA1
   41    42	 1 ;       CG321      CG311
   41    68	 1 ;       CG321       HGA2
   41    69	 1 ;       CG321       HGA2
   42    48	 1 ;       CG311      OG301
   42    43	 1 ;       CG311      CG321
   42    70	 1 ;       CG311       HGA1
   43    44	 1 ;       CG321      OG301
   43    71	 1 ;       CG321       HGA2
   43    72	 1 ;       CG321       HGA2
   44    45	 1 ;       OG301      CG311
   45    46	 1 ;       CG311      CG331
   45    47	 1 ;       CG311      CG331
   45    73	 1 ;       CG311       HGA1
   46    80	 1 ;       CG331       HGA3
   46    81	 1 ;       CG331       HGA3
   46    82	 1 ;       CG331       HGA3
   47    86	 1 ;       CG331       HGA3
   47    87	 1 ;       CG331       HGA3
   47    88	 1 ;       CG331       HGA3
   48    49	 1 ;       OG301      CG331
   49    77	 1 ;       CG331       HGA3
   49    78	 1 ;       CG331       HGA3
   49    79	 1 ;       CG331       HGA3
   50    51	 1 ;       OG311       HGP1

[ pairs ]
;	ai	  aj funct			  c0			c1			  c2			c3
    1    40	 1
    1    30	 1
    1    61	 1
    1     7	 1
    1    52	 1
    1     9	 1
    1    54	 1
    2     6	 1
    2    10	 1
    2     4	 1
    2    29	 1
    3     6	 1
    3    10	 1
    3    41	 1
    3    50	 1
    3    67	 1
    3    31	 1
    3    62	 1
    3    63	 1
    4     5	 1
    4    40	 1
    4    30	 1
    4    61	 1
    5    29	 1
    5    11	 1
    5     8	 1
    5    23	 1
    6     9	 1
    6    54	 1
    6    12	 1
    6    13	 1
    6    53	 1
    7    10	 1
    7    23	 1
    7    15	 1
    7    14	 1
    8    52	 1
    8    12	 1
    8    13	 1
    8    24	 1
    8    25	 1
    8    54	 1
    9    11	 1
    9    83	 1
    9    84	 1
    9    85	 1
    9    26	 1
    9    28	 1
    9    27	 1
   10    52	 1
   10    53	 1
   10    24	 1
   10    25	 1
   11    52	 1
   11    53	 1
   11    17	 1
   11    16	 1
   11    55	 1
   12    15	 1
   12    14	 1
   13    18	 1
   13    22	 1
   13    74	 1
   13    75	 1
   13    76	 1
   14    17	 1
   14    16	 1
   14    55	 1
   15    19	 1
   15    56	 1
   15    21	 1
   15    60	 1
   16    18	 1
   16    22	 1
   17    74	 1
   17    75	 1
   17    76	 1
   17    20	 1
   17    57	 1
   17    59	 1
   18    55	 1
   18    21	 1
   18    60	 1
   18    58	 1
   19    22	 1
   19    59	 1
   20    56	 1
   20    60	 1
   21    57	 1
   22    55	 1
   22    56	 1
   22    58	 1
   23    53	 1
   23    54	 1
   23    89	 1
   23    90	 1
   23    91	 1
   24    26	 1
   24    28	 1
   24    27	 1
   25    83	 1
   25    84	 1
   25    85	 1
   26    89	 1
   26    90	 1
   26    91	 1
   27    89	 1
   27    90	 1
   27    91	 1
   29    32	 1
   29    42	 1
   29    68	 1
   29    69	 1
   29    51	 1
   30    41	 1
   30    50	 1
   30    67	 1
   30    33	 1
   30    39	 1
   31    40	 1
   31    61	 1
   31    34	 1
   31    64	 1
   31    37	 1
   31    66	 1
   32    62	 1
   32    63	 1
   32    35	 1
   32    36	 1
   32    38	 1
   33    37	 1
   33    66	 1
   33    65	 1
   34    39	 1
   34    38	 1
   35    64	 1
   35    37	 1
   35    65	 1
   36    64	 1
   36    66	 1
   38    65	 1
   38    66	 1
   39    64	 1
   39    65	 1
   40    62	 1
   40    63	 1
   40    48	 1
   40    43	 1
   40    70	 1
   41    61	 1
   41    51	 1
   41    49	 1
   41    44	 1
   41    71	 1
   41    72	 1
   42    50	 1
   42    67	 1
   42    45	 1
   42    77	 1
   42    78	 1
   42    79	 1
   43    68	 1
   43    69	 1
   43    49	 1
   43    46	 1
   43    47	 1
   43    73	 1
   44    48	 1
   44    70	 1
   44    80	 1
   44    81	 1
   44    82	 1
   44    86	 1
   44    87	 1
   44    88	 1
   45    71	 1
   45    72	 1
   46    86	 1
   46    87	 1
   46    88	 1
   47    80	 1
   47    81	 1
   47    82	 1
   48    68	 1
   48    69	 1
   48    71	 1
   48    72	 1
   49    70	 1
   50    61	 1
   50    68	 1
   50    69	 1
   51    67	 1
   55    74	 1
   55    75	 1
   55    76	 1
   56    57	 1
   57    58	 1
   58    59	 1
   59    60	 1
   61    67	 1
   61    62	 1
   61    63	 1
   67    68	 1
   67    69	 1
   68    70	 1
   69    70	 1
   70    71	 1
   70    72	 1
   73    80	 1
   73    81	 1
   73    82	 1
   73    86	 1
   73    87	 1
   73    88	 1

[ angles ]
;	ai	  aj	ak funct			c0			  c1			c2			  c3
    5     1     2	5 ;     CG2R61      CG2O1      OG2D1
    5     1     3	5 ;     CG2R61      CG2O1      NG2S1
    2     1     3	5 ;      OG2D1      CG2O1      NG2S1
    1     3     4	5 ;      CG2O1      NG2S1       HGP1
    1     3    29	5 ;      CG2O1      NG2S1      CG311
    4     3    29	5 ;       HGP1      NG2S1      CG311
    6     5    10	5 ;     CG2R61     CG2R61     CG2R61
    6     5     1	5 ;     CG2R61     CG2R61      CG2O1
   10     5     1	5 ;     CG2R61     CG2R61      CG2O1
    7     6     5	5 ;     CG2R61     CG2R61     CG2R61
    7     6    52	5 ;     CG2R61     CG2R61      HGR61
    5     6    52	5 ;     CG2R61     CG2R61      HGR61
   11     7     8	5 ;      CG2O1     CG2R61     CG2R61
   11     7     6	5 ;      CG2O1     CG2R61     CG2R61
    8     7     6	5 ;     CG2R61     CG2R61     CG2R61
    7     8     9	5 ;     CG2R61     CG2R61     CG2R61
    7     8    53	5 ;     CG2R61     CG2R61      HGR61
    9     8    53	5 ;     CG2R61     CG2R61      HGR61
    8     9    23	5 ;     CG2R61     CG2R61      NG301
    8     9    10	5 ;     CG2R61     CG2R61     CG2R61
   23     9    10	5 ;      NG301     CG2R61     CG2R61
    9    10     5	5 ;     CG2R61     CG2R61     CG2R61
    9    10    54	5 ;     CG2R61     CG2R61      HGR61
    5    10    54	5 ;     CG2R61     CG2R61      HGR61
   12    11     7	5 ;      OG2D1      CG2O1     CG2R61
   12    11    13	5 ;      OG2D1      CG2O1      NG2S1
    7    11    13	5 ;     CG2R61      CG2O1      NG2S1
   11    13    15	5 ;      CG2O1      NG2S1      CG311
   11    13    14	5 ;      CG2O1      NG2S1       HGP1
   15    13    14	5 ;      CG311      NG2S1       HGP1
   17    15    16	5 ;     CG2R61      CG311      CG331
   17    15    13	5 ;     CG2R61      CG311      NG2S1
   17    15    55	5 ;     CG2R61      CG311       HGA1
   16    15    13	5 ;      CG331      CG311      NG2S1
   16    15    55	5 ;      CG331      CG311       HGA1
   13    15    55	5 ;      NG2S1      CG311       HGA1
   15    16    74	5 ;      CG311      CG331       HGA3
   15    16    75	5 ;      CG311      CG331       HGA3
   15    16    76	5 ;      CG311      CG331       HGA3
   74    16    75	5 ;       HGA3      CG331       HGA3
   74    16    76	5 ;       HGA3      CG331       HGA3
   75    16    76	5 ;       HGA3      CG331       HGA3
   18    17    15	5 ;     CG2R61     CG2R61      CG311
   18    17    22	5 ;     CG2R61     CG2R61     CG2R61
   15    17    22	5 ;      CG311     CG2R61     CG2R61
   19    18    17	5 ;     CG2R61     CG2R61     CG2R61
   19    18    56	5 ;     CG2R61     CG2R61      HGR61
   17    18    56	5 ;     CG2R61     CG2R61      HGR61
   18    19    20	5 ;     CG2R61     CG2R61     CG2R61
   18    19    57	5 ;     CG2R61     CG2R61      HGR61
   20    19    57	5 ;     CG2R61     CG2R61      HGR61
   19    20    21	5 ;     CG2R61     CG2R61     CG2R61
   19    20    58	5 ;     CG2R61     CG2R61      HGR61
   21    20    58	5 ;     CG2R61     CG2R61      HGR61
   20    21    22	5 ;     CG2R61     CG2R61     CG2R61
   20    21    59	5 ;     CG2R61     CG2R61      HGR61
   22    21    59	5 ;     CG2R61     CG2R61      HGR61
   17    22    21	5 ;     CG2R61     CG2R61     CG2R61
   17    22    60	5 ;     CG2R61     CG2R61      HGR61
   21    22    60	5 ;     CG2R61     CG2R61      HGR61
   24    23     9	5 ;      CG331      NG301     CG2R61
   24    23    25	5 ;      CG331      NG301      SG3O2
    9    23    25	5 ;     CG2R61      NG301      SG3O2
   23    24    83	5 ;      NG301      CG331       HGA3
   23    24    84	5 ;      NG301      CG331       HGA3
   23    24    85	5 ;      NG301      CG331       HGA3
   83    24    84	5 ;       HGA3      CG331       HGA3
   83    24    85	5 ;       HGA3      CG331       HGA3
   84    24    85	5 ;       HGA3      CG331       HGA3
   23    25    26	5 ;      NG301      SG3O2      OG2P1
   23    25    28	5 ;      NG301      SG3O2      CG331
   23    25    27	5 ;      NG301      SG3O2      OG2P1
   26    25    28	5 ;      OG2P1      SG3O2      CG331
   26    25    27	5 ;      OG2P1      SG3O2      OG2P1
   28    25    27	5 ;      CG331      SG3O2      OG2P1
   25    28    89	5 ;      SG3O2      CG331       HGA3
   25    28    90	5 ;      SG3O2      CG331       HGA3
   25    28    91	5 ;      SG3O2      CG331       HGA3
   89    28    90	5 ;       HGA3      CG331       HGA3
   89    28    91	5 ;       HGA3      CG331       HGA3
   90    28    91	5 ;       HGA3      CG331       HGA3
    3    29    40	5 ;      NG2S1      CG311      CG311
    3    29    30	5 ;      NG2S1      CG311      CG321
    3    29    61	5 ;      NG2S1      CG311       HGA1
   40    29    30	5 ;      CG311      CG311      CG321
   40    29    61	5 ;      CG311      CG311       HGA1
   30    29    61	5 ;      CG321      CG311       HGA1
   29    30    31	5 ;      CG311      CG321      OG301
   29    30    62	5 ;      CG311      CG321       HGA2
   29    30    63	5 ;      CG311      CG321       HGA2
   31    30    62	5 ;      OG301      CG321       HGA2
   31    30    63	5 ;      OG301      CG321       HGA2
   62    30    63	5 ;       HGA2      CG321       HGA2
   30    31    32	5 ;      CG321      OG301     CG2R61
   31    32    33	5 ;      OG301     CG2R61     CG2R61
   31    32    39	5 ;      OG301     CG2R61     CG2R61
   33    32    39	5 ;     CG2R61     CG2R61     CG2R61
   32    33    34	5 ;     CG2R61     CG2R61     CG2R66
   32    33    64	5 ;     CG2R61     CG2R61      HGR62
   34    33    64	5 ;     CG2R66     CG2R61      HGR62
   33    34    35	5 ;     CG2R61     CG2R66       FGR1
   33    34    36	5 ;     CG2R61     CG2R66     CG2R61
   35    34    36	5 ;       FGR1     CG2R66     CG2R61
   34    36    37	5 ;     CG2R66     CG2R61     CG2R66
   34    36    65	5 ;     CG2R66     CG2R61      HGR62
   37    36    65	5 ;     CG2R66     CG2R61      HGR62
   39    37    36	5 ;     CG2R61     CG2R66     CG2R61
   39    37    38	5 ;     CG2R61     CG2R66       FGR1
   36    37    38	5 ;     CG2R61     CG2R66       FGR1
   32    39    37	5 ;     CG2R61     CG2R61     CG2R66
   32    39    66	5 ;     CG2R61     CG2R61      HGR62
   37    39    66	5 ;     CG2R66     CG2R61      HGR62
   41    40    50	5 ;      CG321      CG311      OG311
   41    40    29	5 ;      CG321      CG311      CG311
   41    40    67	5 ;      CG321      CG311       HGA1
   50    40    29	5 ;      OG311      CG311      CG311
   50    40    67	5 ;      OG311      CG311       HGA1
   29    40    67	5 ;      CG311      CG311       HGA1
   40    41    42	5 ;      CG311      CG321      CG311
   40    41    68	5 ;      CG311      CG321       HGA2
   40    41    69	5 ;      CG311      CG321       HGA2
   42    41    68	5 ;      CG311      CG321       HGA2
   42    41    69	5 ;      CG311      CG321       HGA2
   68    41    69	5 ;       HGA2      CG321       HGA2
   41    42    48	5 ;      CG321      CG311      OG301
   41    42    43	5 ;      CG321      CG311      CG321
   41    42    70	5 ;      CG321      CG311       HGA1
   48    42    43	5 ;      OG301      CG311      CG321
   48    42    70	5 ;      OG301      CG311       HGA1
   43    42    70	5 ;      CG321      CG311       HGA1
   42    43    44	5 ;      CG311      CG321      OG301
   42    43    71	5 ;      CG311      CG321       HGA2
   42    43    72	5 ;      CG311      CG321       HGA2
   44    43    71	5 ;      OG301      CG321       HGA2
   44    43    72	5 ;      OG301      CG321       HGA2
   71    43    72	5 ;       HGA2      CG321       HGA2
   43    44    45	5 ;      CG321      OG301      CG311
   44    45    46	5 ;      OG301      CG311      CG331
   44    45    47	5 ;      OG301      CG311      CG331
   44    45    73	5 ;      OG301      CG311       HGA1
   46    45    47	5 ;      CG331      CG311      CG331
   46    45    73	5 ;      CG331      CG311       HGA1
   47    45    73	5 ;      CG331      CG311       HGA1
   45    46    80	5 ;      CG311      CG331       HGA3
   45    46    81	5 ;      CG311      CG331       HGA3
   45    46    82	5 ;      CG311      CG331       HGA3
   80    46    81	5 ;       HGA3      CG331       HGA3
   80    46    82	5 ;       HGA3      CG331       HGA3
   81    46    82	5 ;       HGA3      CG331       HGA3
   45    47    86	5 ;      CG311      CG331       HGA3
   45    47    87	5 ;      CG311      CG331       HGA3
   45    47    88	5 ;      CG311      CG331       HGA3
   86    47    87	5 ;       HGA3      CG331       HGA3
   86    47    88	5 ;       HGA3      CG331       HGA3
   87    47    88	5 ;       HGA3      CG331       HGA3
   49    48    42	5 ;      CG331      OG301      CG311
   48    49    77	5 ;      OG301      CG331       HGA3
   48    49    78	5 ;      OG301      CG331       HGA3
   48    49    79	5 ;      OG301      CG331       HGA3
   77    49    78	5 ;       HGA3      CG331       HGA3
   77    49    79	5 ;       HGA3      CG331       HGA3
   78    49    79	5 ;       HGA3      CG331       HGA3
   40    50    51	5 ;      CG311      OG311       HGP1

[ dihedrals ]
;	ai	  aj	ak	  al funct			  c0			c1			  c2			c3			  c4			c5
    2     1     5     6	 9 ;      OG2D1      CG2O1     CG2R61     CG2R61
    2     1     5    10	 9 ;      OG2D1      CG2O1     CG2R61     CG2R61
    3     1     5     6	 9 ;      NG2S1      CG2O1     CG2R61     CG2R61
    3     1     5    10	 9 ;      NG2S1      CG2O1     CG2R61     CG2R61
    5     1     3     4	 9 ;     CG2R61      CG2O1      NG2S1       HGP1
    5     1     3    29	 9 ;     CG2R61      CG2O1      NG2S1      CG311
    2     1     3     4	 9 ;      OG2D1      CG2O1      NG2S1       HGP1
    2     1     3    29	 9 ;      OG2D1      CG2O1      NG2S1      CG311
    1     3    29    40	 9 ;      CG2O1      NG2S1      CG311      CG311
    1     3    29    30	 9 ;      CG2O1      NG2S1      CG311      CG321
    1     3    29    61	 9 ;      CG2O1      NG2S1      CG311       HGA1
    4     3    29    40	 9 ;       HGP1      NG2S1      CG311      CG311
    4     3    29    30	 9 ;       HGP1      NG2S1      CG311      CG321
    4     3    29    61	 9 ;       HGP1      NG2S1      CG311       HGA1
   10     5     6     7	 9 ;     CG2R61     CG2R61     CG2R61     CG2R61
   10     5     6    52	 9 ;     CG2R61     CG2R61     CG2R61      HGR61
    1     5     6     7	 9 ;      CG2O1     CG2R61     CG2R61     CG2R61
    1     5     6    52	 9 ;      CG2O1     CG2R61     CG2R61      HGR61
    6     5    10     9	 9 ;     CG2R61     CG2R61     CG2R61     CG2R61
    6     5    10    54	 9 ;     CG2R61     CG2R61     CG2R61      HGR61
    1     5    10     9	 9 ;      CG2O1     CG2R61     CG2R61     CG2R61
    1     5    10    54	 9 ;      CG2O1     CG2R61     CG2R61      HGR61
    5     6     7    11	 9 ;     CG2R61     CG2R61     CG2R61      CG2O1
    5     6     7     8	 9 ;     CG2R61     CG2R61     CG2R61     CG2R61
   52     6     7    11	 9 ;      HGR61     CG2R61     CG2R61      CG2O1
   52     6     7     8	 9 ;      HGR61     CG2R61     CG2R61     CG2R61
    8     7    11    12	 9 ;     CG2R61     CG2R61      CG2O1      OG2D1
    8     7    11    13	 9 ;     CG2R61     CG2R61      CG2O1      NG2S1
    6     7    11    12	 9 ;     CG2R61     CG2R61      CG2O1      OG2D1
    6     7    11    13	 9 ;     CG2R61     CG2R61      CG2O1      NG2S1
   11     7     8     9	 9 ;      CG2O1     CG2R61     CG2R61     CG2R61
   11     7     8    53	 9 ;      CG2O1     CG2R61     CG2R61      HGR61
    6     7     8     9	 9 ;     CG2R61     CG2R61     CG2R61     CG2R61
    6     7     8    53	 9 ;     CG2R61     CG2R61     CG2R61      HGR61
    7     8     9    23	 9 ;     CG2R61     CG2R61     CG2R61      NG301
    7     8     9    10	 9 ;     CG2R61     CG2R61     CG2R61     CG2R61
   53     8     9    23	 9 ;      HGR61     CG2R61     CG2R61      NG301
   53     8     9    10	 9 ;      HGR61     CG2R61     CG2R61     CG2R61
    8     9    23    24	 9 ;     CG2R61     CG2R61      NG301      CG331
    8     9    23    25	 9 ;     CG2R61     CG2R61      NG301      SG3O2
   10     9    23    24	 9 ;     CG2R61     CG2R61      NG301      CG331
   10     9    23    25	 9 ;     CG2R61     CG2R61      NG301      SG3O2
    8     9    10     5	 9 ;     CG2R61     CG2R61     CG2R61     CG2R61
    8     9    10    54	 9 ;     CG2R61     CG2R61     CG2R61      HGR61
   23     9    10     5	 9 ;      NG301     CG2R61     CG2R61     CG2R61
   23     9    10    54	 9 ;      NG301     CG2R61     CG2R61      HGR61
   12    11    13    15	 9 ;      OG2D1      CG2O1      NG2S1      CG311
   12    11    13    14	 9 ;      OG2D1      CG2O1      NG2S1       HGP1
    7    11    13    15	 9 ;     CG2R61      CG2O1      NG2S1      CG311
    7    11    13    14	 9 ;     CG2R61      CG2O1      NG2S1       HGP1
   11    13    15    17	 9 ;      CG2O1      NG2S1      CG311     CG2R61
   11    13    15    16	 9 ;      CG2O1      NG2S1      CG311      CG331
   11    13    15    55	 9 ;      CG2O1      NG2S1      CG311       HGA1
   14    13    15    17	 9 ;       HGP1      NG2S1      CG311     CG2R61
   14    13    15    16	 9 ;       HGP1      NG2S1      CG311      CG331
   14    13    15    55	 9 ;       HGP1      NG2S1      CG311       HGA1
   16    15    17    18	 9 ;      CG331      CG311     CG2R61     CG2R61
   16    15    17    22	 9 ;      CG331      CG311     CG2R61     CG2R61
   13    15    17    18	 9 ;      NG2S1      CG311     CG2R61     CG2R61
   13    15    17    22	 9 ;      NG2S1      CG311     CG2R61     CG2R61
   55    15    17    18	 9 ;       HGA1      CG311     CG2R61     CG2R61
   55    15    17    22	 9 ;       HGA1      CG311     CG2R61     CG2R61
   17    15    16    74	 9 ;     CG2R61      CG311      CG331       HGA3
   17    15    16    75	 9 ;     CG2R61      CG311      CG331       HGA3
   17    15    16    76	 9 ;     CG2R61      CG311      CG331       HGA3
   13    15    16    74	 9 ;      NG2S1      CG311      CG331       HGA3
   13    15    16    75	 9 ;      NG2S1      CG311      CG331       HGA3
   13    15    16    76	 9 ;      NG2S1      CG311      CG331       HGA3
   55    15    16    74	 9 ;       HGA1      CG311      CG331       HGA3
   55    15    16    75	 9 ;       HGA1      CG311      CG331       HGA3
   55    15    16    76	 9 ;       HGA1      CG311      CG331       HGA3
   15    17    18    19	 9 ;      CG311     CG2R61     CG2R61     CG2R61
   15    17    18    56	 9 ;      CG311     CG2R61     CG2R61      HGR61
   22    17    18    19	 9 ;     CG2R61     CG2R61     CG2R61     CG2R61
   22    17    18    56	 9 ;     CG2R61     CG2R61     CG2R61      HGR61
   18    17    22    21	 9 ;     CG2R61     CG2R61     CG2R61     CG2R61
   18    17    22    60	 9 ;     CG2R61     CG2R61     CG2R61      HGR61
   15    17    22    21	 9 ;      CG311     CG2R61     CG2R61     CG2R61
   15    17    22    60	 9 ;      CG311     CG2R61     CG2R61      HGR61
   17    18    19    20	 9 ;     CG2R61     CG2R61     CG2R61     CG2R61
   17    18    19    57	 9 ;     CG2R61     CG2R61     CG2R61      HGR61
   56    18    19    20	 9 ;      HGR61     CG2R61     CG2R61     CG2R61
   56    18    19    57	 9 ;      HGR61     CG2R61     CG2R61      HGR61
   18    19    20    21	 9 ;     CG2R61     CG2R61     CG2R61     CG2R61
   18    19    20    58	 9 ;     CG2R61     CG2R61     CG2R61      HGR61
   57    19    20    21	 9 ;      HGR61     CG2R61     CG2R61     CG2R61
   57    19    20    58	 9 ;      HGR61     CG2R61     CG2R61      HGR61
   19    20    21    22	 9 ;     CG2R61     CG2R61     CG2R61     CG2R61
   19    20    21    59	 9 ;     CG2R61     CG2R61     CG2R61      HGR61
   58    20    21    22	 9 ;      HGR61     CG2R61     CG2R61     CG2R61
   58    20    21    59	 9 ;      HGR61     CG2R61     CG2R61      HGR61
   20    21    22    17	 9 ;     CG2R61     CG2R61     CG2R61     CG2R61
   20    21    22    60	 9 ;     CG2R61     CG2R61     CG2R61      HGR61
   59    21    22    17	 9 ;      HGR61     CG2R61     CG2R61     CG2R61
   59    21    22    60	 9 ;      HGR61     CG2R61     CG2R61      HGR61
    9    23    24    83	 9 ;     CG2R61      NG301      CG331       HGA3
    9    23    24    84	 9 ;     CG2R61      NG301      CG331       HGA3
    9    23    24    85	 9 ;     CG2R61      NG301      CG331       HGA3
   25    23    24    83	 9 ;      SG3O2      NG301      CG331       HGA3
   25    23    24    84	 9 ;      SG3O2      NG301      CG331       HGA3
   25    23    24    85	 9 ;      SG3O2      NG301      CG331       HGA3
   24    23    25    26	 9 ;      CG331      NG301      SG3O2      OG2P1
   24    23    25    28	 9 ;      CG331      NG301      SG3O2      CG331
   24    23    25    27	 9 ;      CG331      NG301      SG3O2      OG2P1
    9    23    25    26	 9 ;     CG2R61      NG301      SG3O2      OG2P1
    9    23    25    28	 9 ;     CG2R61      NG301      SG3O2      CG331
    9    23    25    27	 9 ;     CG2R61      NG301      SG3O2      OG2P1
   23    25    28    89	 9 ;      NG301      SG3O2      CG331       HGA3
   23    25    28    90	 9 ;      NG301      SG3O2      CG331       HGA3
   23    25    28    91	 9 ;      NG301      SG3O2      CG331       HGA3
   26    25    28    89	 9 ;      OG2P1      SG3O2      CG331       HGA3
   26    25    28    90	 9 ;      OG2P1      SG3O2      CG331       HGA3
   26    25    28    91	 9 ;      OG2P1      SG3O2      CG331       HGA3
   27    25    28    89	 9 ;      OG2P1      SG3O2      CG331       HGA3
   27    25    28    90	 9 ;      OG2P1      SG3O2      CG331       HGA3
   27    25    28    91	 9 ;      OG2P1      SG3O2      CG331       HGA3
    3    29    40    41	 9 ;      NG2S1      CG311      CG311      CG321
    3    29    40    50	 9 ;      NG2S1      CG311      CG311      OG311
    3    29    40    67	 9 ;      NG2S1      CG311      CG311       HGA1
   30    29    40    41	 9 ;      CG321      CG311      CG311      CG321
   30    29    40    50	 9 ;      CG321      CG311      CG311      OG311
   30    29    40    67	 9 ;      CG321      CG311      CG311       HGA1
   61    29    40    41	 9 ;       HGA1      CG311      CG311      CG321
   61    29    40    50	 9 ;       HGA1      CG311      CG311      OG311
   61    29    40    67	 9 ;       HGA1      CG311      CG311       HGA1
    3    29    30    31	 9 ;      NG2S1      CG311      CG321      OG301
    3    29    30    62	 9 ;      NG2S1      CG311      CG321       HGA2
    3    29    30    63	 9 ;      NG2S1      CG311      CG321       HGA2
   40    29    30    31	 9 ;      CG311      CG311      CG321      OG301
   40    29    30    62	 9 ;      CG311      CG311      CG321       HGA2
   40    29    30    63	 9 ;      CG311      CG311      CG321       HGA2
   61    29    30    31	 9 ;       HGA1      CG311      CG321      OG301
   61    29    30    62	 9 ;       HGA1      CG311      CG321       HGA2
   61    29    30    63	 9 ;       HGA1      CG311      CG321       HGA2
   29    30    31    32	 9 ;      CG311      CG321      OG301     CG2R61
   62    30    31    32	 9 ;       HGA2      CG321      OG301     CG2R61
   63    30    31    32	 9 ;       HGA2      CG321      OG301     CG2R61
   30    31    32    33	 9 ;      CG321      OG301     CG2R61     CG2R61
   30    31    32    39	 9 ;      CG321      OG301     CG2R61     CG2R61
   31    32    33    34	 9 ;      OG301     CG2R61     CG2R61     CG2R66
   31    32    33    64	 9 ;      OG301     CG2R61     CG2R61      HGR62
   39    32    33    34	 9 ;     CG2R61     CG2R61     CG2R61     CG2R66
   39    32    33    64	 9 ;     CG2R61     CG2R61     CG2R61      HGR62
   31    32    39    37	 9 ;      OG301     CG2R61     CG2R61     CG2R66
   31    32    39    66	 9 ;      OG301     CG2R61     CG2R61      HGR62
   33    32    39    37	 9 ;     CG2R61     CG2R61     CG2R61     CG2R66
   33    32    39    66	 9 ;     CG2R61     CG2R61     CG2R61      HGR62
   32    33    34    35	 9 ;     CG2R61     CG2R61     CG2R66       FGR1
   32    33    34    36	 9 ;     CG2R61     CG2R61     CG2R66     CG2R61
   64    33    34    35	 9 ;      HGR62     CG2R61     CG2R66       FGR1
   64    33    34    36	 9 ;      HGR62     CG2R61     CG2R66     CG2R61
   33    34    36    37	 9 ;     CG2R61     CG2R66     CG2R61     CG2R66
   33    34    36    65	 9 ;     CG2R61     CG2R66     CG2R61      HGR62
   35    34    36    37	 9 ;       FGR1     CG2R66     CG2R61     CG2R66
   35    34    36    65	 9 ;       FGR1     CG2R66     CG2R61      HGR62
   34    36    37    39	 9 ;     CG2R66     CG2R61     CG2R66     CG2R61
   34    36    37    38	 9 ;     CG2R66     CG2R61     CG2R66       FGR1
   65    36    37    39	 9 ;      HGR62     CG2R61     CG2R66     CG2R61
   65    36    37    38	 9 ;      HGR62     CG2R61     CG2R66       FGR1
   36    37    39    32	 9 ;     CG2R61     CG2R66     CG2R61     CG2R61
   36    37    39    66	 9 ;     CG2R61     CG2R66     CG2R61      HGR62
   38    37    39    32	 9 ;       FGR1     CG2R66     CG2R61     CG2R61
   38    37    39    66	 9 ;       FGR1     CG2R66     CG2R61      HGR62
   50    40    41    42	 9 ;      OG311      CG311      CG321      CG311
   50    40    41    68	 9 ;      OG311      CG311      CG321       HGA2
   50    40    41    69	 9 ;      OG311      CG311      CG321       HGA2
   29    40    41    42	 9 ;      CG311      CG311      CG321      CG311
   29    40    41    68	 9 ;      CG311      CG311      CG321       HGA2
   29    40    41    69	 9 ;      CG311      CG311      CG321       HGA2
   67    40    41    42	 9 ;       HGA1      CG311      CG321      CG311
   67    40    41    68	 9 ;       HGA1      CG311      CG321       HGA2
   67    40    41    69	 9 ;       HGA1      CG311      CG321       HGA2
   41    40    50    51	 9 ;      CG321      CG311      OG311       HGP1
   29    40    50    51	 9 ;      CG311      CG311      OG311       HGP1
   67    40    50    51	 9 ;       HGA1      CG311      OG311       HGP1
   40    41    42    48	 9 ;      CG311      CG321      CG311      OG301
   40    41    42    43	 9 ;      CG311      CG321      CG311      CG321
   40    41    42    70	 9 ;      CG311      CG321      CG311       HGA1
   68    41    42    48	 9 ;       HGA2      CG321      CG311      OG301
   68    41    42    43	 9 ;       HGA2      CG321      CG311      CG321
   68    41    42    70	 9 ;       HGA2      CG321      CG311       HGA1
   69    41    42    48	 9 ;       HGA2      CG321      CG311      OG301
   69    41    42    43	 9 ;       HGA2      CG321      CG311      CG321
   69    41    42    70	 9 ;       HGA2      CG321      CG311       HGA1
   41    42    48    49	 9 ;      CG321      CG311      OG301      CG331
   43    42    48    49	 9 ;      CG321      CG311      OG301      CG331
   70    42    48    49	 9 ;       HGA1      CG311      OG301      CG331
   41    42    43    44	 9 ;      CG321      CG311      CG321      OG301
   41    42    43    71	 9 ;      CG321      CG311      CG321       HGA2
   41    42    43    72	 9 ;      CG321      CG311      CG321       HGA2
   48    42    43    44	 9 ;      OG301      CG311      CG321      OG301
   48    42    43    71	 9 ;      OG301      CG311      CG321       HGA2
   48    42    43    72	 9 ;      OG301      CG311      CG321       HGA2
   70    42    43    44	 9 ;       HGA1      CG311      CG321      OG301
   70    42    43    71	 9 ;       HGA1      CG311      CG321       HGA2
   70    42    43    72	 9 ;       HGA1      CG311      CG321       HGA2
   42    43    44    45	 9 ;      CG311      CG321      OG301      CG311
   71    43    44    45	 9 ;       HGA2      CG321      OG301      CG311
   72    43    44    45	 9 ;       HGA2      CG321      OG301      CG311
   43    44    45    46	 9 ;      CG321      OG301      CG311      CG331
   43    44    45    47	 9 ;      CG321      OG301      CG311      CG331
   43    44    45    73	 9 ;      CG321      OG301      CG311       HGA1
   44    45    46    80	 9 ;      OG301      CG311      CG331       HGA3
   44    45    46    81	 9 ;      OG301      CG311      CG331       HGA3
   44    45    46    82	 9 ;      OG301      CG311      CG331       HGA3
   47    45    46    80	 9 ;      CG331      CG311      CG331       HGA3
   47    45    46    81	 9 ;      CG331      CG311      CG331       HGA3
   47    45    46    82	 9 ;      CG331      CG311      CG331       HGA3
   73    45    46    80	 9 ;       HGA1      CG311      CG331       HGA3
   73    45    46    81	 9 ;       HGA1      CG311      CG331       HGA3
   73    45    46    82	 9 ;       HGA1      CG311      CG331       HGA3
   44    45    47    86	 9 ;      OG301      CG311      CG331       HGA3
   44    45    47    87	 9 ;      OG301      CG311      CG331       HGA3
   44    45    47    88	 9 ;      OG301      CG311      CG331       HGA3
   46    45    47    86	 9 ;      CG331      CG311      CG331       HGA3
   46    45    47    87	 9 ;      CG331      CG311      CG331       HGA3
   46    45    47    88	 9 ;      CG331      CG311      CG331       HGA3
   73    45    47    86	 9 ;       HGA1      CG311      CG331       HGA3
   73    45    47    87	 9 ;       HGA1      CG311      CG331       HGA3
   73    45    47    88	 9 ;       HGA1      CG311      CG331       HGA3
   42    48    49    77	 9 ;      CG311      OG301      CG331       HGA3
   42    48    49    78	 9 ;      CG311      OG301      CG331       HGA3
   42    48    49    79	 9 ;      CG311      OG301      CG331       HGA3

[ dihedrals ]
;	ai	  aj	ak	  al funct			  c0			c1			  c2			c3
    1     5     3     2	 2
   11     7    13    12	 2

