Guyana Rwanda Oman Macau Angola Cameroon Senegal
   28
    1LIG     C1    1  -1.084   0.172  -1.583
    1LIG     C2    2  -1.123   0.306  -1.589
    1LIG     C3    3  -1.209   0.348  -1.691
    1LIG     C4    4  -1.256   0.258  -1.787
    1LIG     C5    5  -1.218   0.123  -1.778
    1LIG     C6    6  -1.132   0.079  -1.676
    1LIG     C7    7  -1.346   0.303  -1.900
    1LIG     C8    8  -1.344   0.210  -2.021
    1LIG      N    9  -1.475   0.210  -2.090
    1LIG     H1   10  -1.545   0.268  -2.041
    1LIG     H2   11  -1.467   0.247  -2.186
    1LIG     H3   12  -1.514   0.115  -2.097
    1LIG     C9   13  -1.089  -0.066  -1.671
    1LIG    C10   14  -0.969  -0.091  -1.761
    1LIG      O   15  -0.999   0.130  -1.486
    1LIG     H4   16  -0.975   0.037  -1.500
    1LIG     H5   17  -1.089   0.373  -1.519
    1LIG     H6   18  -1.238   0.447  -1.696
    1LIG     H7   19  -1.254   0.055  -1.847
    1LIG     H8   20  -1.446   0.309  -1.863
    1LIG     H9   21  -1.309   0.398  -1.933
    1LIG    H10   22  -1.268   0.242  -2.089
    1LIG    H11   23  -1.324   0.110  -1.987
    1LIG    H12   24  -1.063  -0.091  -1.571
    1LIG    H13   25  -1.170  -0.126  -1.706
    1LIG    H14   26  -0.887  -0.032  -1.728
    1LIG    H15   27  -0.994  -0.065  -1.862
    1LIG    H16   28  -0.942  -0.195  -1.757
   0.00000   0.00000   0.00000
