; Created by cgenff_charmm2gmx.py

[ moleculetype ]
; Name			   nrexcl
LIG				 3

[ atoms ]
;	 nr		  type	resnr residue  atom   cgnr	   charge		mass  typeB    chargeB		massB
; residue	 1 LIG rtp LIG q	qsum
     1     CG2R61      1    LIG     C1      1      0.093     12.011   ;
     2     CG2R61      1    LIG     C2      2     -0.109     12.011   ;
     3     CG2R61      1    LIG     C3      3     -0.119     12.011   ;
     4     CG2R61      1    LIG     C4      4     -0.123     12.011   ;
     5     CG2R61      1    LIG     C5      5     -0.127     12.011   ;
     6     CG2R61      1    LIG     C6      6      0.029     12.011   ;
     7      CG321      1    LIG     C7      7      0.000     12.011   ;
     8      CG324      1    LIG     C8      8      0.094     12.011   ;
     9      NG3P3      1    LIG      N      9     -0.309     14.007   ;
    10       HGP2      1    LIG     H1     10      0.328      1.008   ;
    11       HGP2      1    LIG     H2     11      0.328      1.008   ;
    12       HGP2      1    LIG     H3     12      0.328      1.008   ;
    13      CG321      1    LIG     C9     13     -0.184     12.011   ;
    14      CG331      1    LIG    C10     14     -0.271     12.011   ;
    15      OG311      1    LIG      O     15     -0.537     15.999   ;
    16       HGP1      1    LIG     H4     16      0.421      1.008   ;
    17      HGR61      1    LIG     H5     17      0.116      1.008   ;
    18      HGR61      1    LIG     H6     18      0.116      1.008   ;
    19      HGR61      1    LIG     H7     19      0.116      1.008   ;
    20       HGA2      1    LIG     H8     20      0.090      1.008   ;
    21       HGA2      1    LIG     H9     21      0.090      1.008   ;
    22       HGA2      1    LIG    H10     22      0.090      1.008   ;
    23       HGA2      1    LIG    H11     23      0.090      1.008   ;
    24       HGA2      1    LIG    H12     24      0.090      1.008   ;
    25       HGA2      1    LIG    H13     25      0.090      1.008   ;
    26       HGA3      1    LIG    H14     26      0.090      1.008   ;
    27       HGA3      1    LIG    H15     27      0.090      1.008   ;
    28       HGA3      1    LIG    H16     28      0.090      1.008   ;

[ bonds ]
;	ai	  aj funct			  c0			c1			  c2			c3
    1     6	 1 ;      CG2R61     CG2R61
    1     2	 1 ;      CG2R61     CG2R61
    1    15	 1 ;      CG2R61      OG311
    2     3	 1 ;      CG2R61     CG2R61
    2    17	 1 ;      CG2R61      HGR61
    3     4	 1 ;      CG2R61     CG2R61
    3    18	 1 ;      CG2R61      HGR61
    4     7	 1 ;      CG2R61      CG321
    4     5	 1 ;      CG2R61     CG2R61
    5     6	 1 ;      CG2R61     CG2R61
    5    19	 1 ;      CG2R61      HGR61
    6    13	 1 ;      CG2R61      CG321
    7     8	 1 ;       CG321      CG324
    7    20	 1 ;       CG321       HGA2
    7    21	 1 ;       CG321       HGA2
    8     9	 1 ;       CG324      NG3P3
    8    22	 1 ;       CG324       HGA2
    8    23	 1 ;       CG324       HGA2
    9    11	 1 ;       NG3P3       HGP2
    9    12	 1 ;       NG3P3       HGP2
    9    10	 1 ;       NG3P3       HGP2
   13    14	 1 ;       CG321      CG331
   13    24	 1 ;       CG321       HGA2
   13    25	 1 ;       CG321       HGA2
   14    26	 1 ;       CG331       HGA3
   14    27	 1 ;       CG331       HGA3
   14    28	 1 ;       CG331       HGA3
   15    16	 1 ;       OG311       HGP1

[ pairs ]
;	ai	  aj funct			  c0			c1			  c2			c3
    1     4	 1
    1    18	 1
    1    19	 1
    1    14	 1
    1    24	 1
    1    25	 1
    2     5	 1
    2    13	 1
    2    16	 1
    2     7	 1
    3     6	 1
    3    15	 1
    3     8	 1
    3    20	 1
    3    21	 1
    3    19	 1
    4    17	 1
    4    13	 1
    4     9	 1
    4    22	 1
    4    23	 1
    5    15	 1
    5    18	 1
    5     8	 1
    5    20	 1
    5    21	 1
    5    14	 1
    5    24	 1
    5    25	 1
    6    17	 1
    6    16	 1
    6     7	 1
    6    26	 1
    6    27	 1
    6    28	 1
    7    18	 1
    7    19	 1
    7    11	 1
    7    12	 1
    7    10	 1
    9    20	 1
    9    21	 1
   10    22	 1
   10    23	 1
   11    22	 1
   11    23	 1
   12    22	 1
   12    23	 1
   13    15	 1
   13    19	 1
   15    17	 1
   17    18	 1
   20    22	 1
   20    23	 1
   21    22	 1
   21    23	 1
   24    26	 1
   24    27	 1
   24    28	 1
   25    26	 1
   25    27	 1
   25    28	 1

[ angles ]
;	ai	  aj	ak funct			c0			  c1			c2			  c3
    6     1     2	5 ;     CG2R61     CG2R61     CG2R61
    6     1    15	5 ;     CG2R61     CG2R61      OG311
    2     1    15	5 ;     CG2R61     CG2R61      OG311
    3     2     1	5 ;     CG2R61     CG2R61     CG2R61
    3     2    17	5 ;     CG2R61     CG2R61      HGR61
    1     2    17	5 ;     CG2R61     CG2R61      HGR61
    4     3     2	5 ;     CG2R61     CG2R61     CG2R61
    4     3    18	5 ;     CG2R61     CG2R61      HGR61
    2     3    18	5 ;     CG2R61     CG2R61      HGR61
    7     4     5	5 ;      CG321     CG2R61     CG2R61
    7     4     3	5 ;      CG321     CG2R61     CG2R61
    5     4     3	5 ;     CG2R61     CG2R61     CG2R61
    4     5     6	5 ;     CG2R61     CG2R61     CG2R61
    4     5    19	5 ;     CG2R61     CG2R61      HGR61
    6     5    19	5 ;     CG2R61     CG2R61      HGR61
    5     6    13	5 ;     CG2R61     CG2R61      CG321
    5     6     1	5 ;     CG2R61     CG2R61     CG2R61
   13     6     1	5 ;      CG321     CG2R61     CG2R61
    8     7     4	5 ;      CG324      CG321     CG2R61
    8     7    20	5 ;      CG324      CG321       HGA2
    8     7    21	5 ;      CG324      CG321       HGA2
    4     7    20	5 ;     CG2R61      CG321       HGA2
    4     7    21	5 ;     CG2R61      CG321       HGA2
   20     7    21	5 ;       HGA2      CG321       HGA2
    9     8     7	5 ;      NG3P3      CG324      CG321
    9     8    22	5 ;      NG3P3      CG324       HGA2
    9     8    23	5 ;      NG3P3      CG324       HGA2
    7     8    22	5 ;      CG321      CG324       HGA2
    7     8    23	5 ;      CG321      CG324       HGA2
   22     8    23	5 ;       HGA2      CG324       HGA2
   11     9    12	5 ;       HGP2      NG3P3       HGP2
   11     9    10	5 ;       HGP2      NG3P3       HGP2
   11     9     8	5 ;       HGP2      NG3P3      CG324
   12     9    10	5 ;       HGP2      NG3P3       HGP2
   12     9     8	5 ;       HGP2      NG3P3      CG324
   10     9     8	5 ;       HGP2      NG3P3      CG324
   14    13     6	5 ;      CG331      CG321     CG2R61
   14    13    24	5 ;      CG331      CG321       HGA2
   14    13    25	5 ;      CG331      CG321       HGA2
    6    13    24	5 ;     CG2R61      CG321       HGA2
    6    13    25	5 ;     CG2R61      CG321       HGA2
   24    13    25	5 ;       HGA2      CG321       HGA2
   13    14    26	5 ;      CG321      CG331       HGA3
   13    14    27	5 ;      CG321      CG331       HGA3
   13    14    28	5 ;      CG321      CG331       HGA3
   26    14    27	5 ;       HGA3      CG331       HGA3
   26    14    28	5 ;       HGA3      CG331       HGA3
   27    14    28	5 ;       HGA3      CG331       HGA3
    1    15    16	5 ;     CG2R61      OG311       HGP1

[ dihedrals ]
;	ai	  aj	ak	  al funct			  c0			c1			  c2			c3			  c4			c5
    2     1     6     5	 9 ;     CG2R61     CG2R61     CG2R61     CG2R61
    2     1     6    13	 9 ;     CG2R61     CG2R61     CG2R61      CG321
   15     1     6     5	 9 ;      OG311     CG2R61     CG2R61     CG2R61
   15     1     6    13	 9 ;      OG311     CG2R61     CG2R61      CG321
    6     1     2     3	 9 ;     CG2R61     CG2R61     CG2R61     CG2R61
    6     1     2    17	 9 ;     CG2R61     CG2R61     CG2R61      HGR61
   15     1     2     3	 9 ;      OG311     CG2R61     CG2R61     CG2R61
   15     1     2    17	 9 ;      OG311     CG2R61     CG2R61      HGR61
    6     1    15    16	 9 ;     CG2R61     CG2R61      OG311       HGP1
    2     1    15    16	 9 ;     CG2R61     CG2R61      OG311       HGP1
    1     2     3     4	 9 ;     CG2R61     CG2R61     CG2R61     CG2R61
    1     2     3    18	 9 ;     CG2R61     CG2R61     CG2R61      HGR61
   17     2     3     4	 9 ;      HGR61     CG2R61     CG2R61     CG2R61
   17     2     3    18	 9 ;      HGR61     CG2R61     CG2R61      HGR61
    2     3     4     7	 9 ;     CG2R61     CG2R61     CG2R61      CG321
    2     3     4     5	 9 ;     CG2R61     CG2R61     CG2R61     CG2R61
   18     3     4     7	 9 ;      HGR61     CG2R61     CG2R61      CG321
   18     3     4     5	 9 ;      HGR61     CG2R61     CG2R61     CG2R61
    5     4     7     8	 9 ;     CG2R61     CG2R61      CG321      CG324
    5     4     7    20	 9 ;     CG2R61     CG2R61      CG321       HGA2
    5     4     7    21	 9 ;     CG2R61     CG2R61      CG321       HGA2
    3     4     7     8	 9 ;     CG2R61     CG2R61      CG321      CG324
    3     4     7    20	 9 ;     CG2R61     CG2R61      CG321       HGA2
    3     4     7    21	 9 ;     CG2R61     CG2R61      CG321       HGA2
    7     4     5     6	 9 ;      CG321     CG2R61     CG2R61     CG2R61
    7     4     5    19	 9 ;      CG321     CG2R61     CG2R61      HGR61
    3     4     5     6	 9 ;     CG2R61     CG2R61     CG2R61     CG2R61
    3     4     5    19	 9 ;     CG2R61     CG2R61     CG2R61      HGR61
    4     5     6    13	 9 ;     CG2R61     CG2R61     CG2R61      CG321
    4     5     6     1	 9 ;     CG2R61     CG2R61     CG2R61     CG2R61
   19     5     6    13	 9 ;      HGR61     CG2R61     CG2R61      CG321
   19     5     6     1	 9 ;      HGR61     CG2R61     CG2R61     CG2R61
    5     6    13    14	 9 ;     CG2R61     CG2R61      CG321      CG331
    5     6    13    24	 9 ;     CG2R61     CG2R61      CG321       HGA2
    5     6    13    25	 9 ;     CG2R61     CG2R61      CG321       HGA2
    1     6    13    14	 9 ;     CG2R61     CG2R61      CG321      CG331
    1     6    13    24	 9 ;     CG2R61     CG2R61      CG321       HGA2
    1     6    13    25	 9 ;     CG2R61     CG2R61      CG321       HGA2
    4     7     8     9	 9 ;     CG2R61      CG321      CG324      NG3P3
    4     7     8    22	 9 ;     CG2R61      CG321      CG324       HGA2
    4     7     8    23	 9 ;     CG2R61      CG321      CG324       HGA2
   20     7     8     9	 9 ;       HGA2      CG321      CG324      NG3P3
   20     7     8    22	 9 ;       HGA2      CG321      CG324       HGA2
   20     7     8    23	 9 ;       HGA2      CG321      CG324       HGA2
   21     7     8     9	 9 ;       HGA2      CG321      CG324      NG3P3
   21     7     8    22	 9 ;       HGA2      CG321      CG324       HGA2
   21     7     8    23	 9 ;       HGA2      CG321      CG324       HGA2
    7     8     9    11	 9 ;      CG321      CG324      NG3P3       HGP2
    7     8     9    12	 9 ;      CG321      CG324      NG3P3       HGP2
    7     8     9    10	 9 ;      CG321      CG324      NG3P3       HGP2
   22     8     9    11	 9 ;       HGA2      CG324      NG3P3       HGP2
   22     8     9    12	 9 ;       HGA2      CG324      NG3P3       HGP2
   22     8     9    10	 9 ;       HGA2      CG324      NG3P3       HGP2
   23     8     9    11	 9 ;       HGA2      CG324      NG3P3       HGP2
   23     8     9    12	 9 ;       HGA2      CG324      NG3P3       HGP2
   23     8     9    10	 9 ;       HGA2      CG324      NG3P3       HGP2
    6    13    14    26	 9 ;     CG2R61      CG321      CG331       HGA3
    6    13    14    27	 9 ;     CG2R61      CG321      CG331       HGA3
    6    13    14    28	 9 ;     CG2R61      CG321      CG331       HGA3
   24    13    14    26	 9 ;       HGA2      CG321      CG331       HGA3
   24    13    14    27	 9 ;       HGA2      CG321      CG331       HGA3
   24    13    14    28	 9 ;       HGA2      CG321      CG331       HGA3
   25    13    14    26	 9 ;       HGA2      CG321      CG331       HGA3
   25    13    14    27	 9 ;       HGA2      CG321      CG331       HGA3
   25    13    14    28	 9 ;       HGA2      CG321      CG331       HGA3

