GROtesk MACabre and Sinister
   74
    1LIG     N1    1  -1.679   0.476  -1.403
    1LIG     H1    2  -1.720   0.442  -1.315
    1LIG     H2    3  -1.651   0.572  -1.382
    1LIG     C1    4  -1.548   0.391  -1.418
    1LIG     C2    5  -1.431   0.455  -1.502
    1LIG     C3    6  -1.282   0.416  -1.459
    1LIG     N2    7  -1.188   0.528  -1.473
    1LIG     C4    8  -1.115   0.543  -1.591
    1LIG     O1    9  -1.136   0.477  -1.691
    1LIG     C5   10  -1.008   0.650  -1.585
    1LIG     H3   11  -1.142   0.562  -1.389
    1LIG     C6   12  -1.276   0.360  -1.312
    1LIG     C7   13  -1.239   0.213  -1.312
    1LIG     C8   14  -1.329   0.120  -1.365
    1LIG     C9   15  -1.312  -0.015  -1.340
    1LIG     F1   16  -1.405  -0.102  -1.382
    1LIG    C10   17  -1.204  -0.062  -1.266
    1LIG    C11   18  -1.109   0.030  -1.222
    1LIG    C12   19  -1.124   0.167  -1.246
    1LIG     F2   20  -1.006  -0.012  -1.148
    1LIG     O2   21  -1.445   0.421  -1.640
    1LIG     H4   22  -1.370   0.366  -1.666
    1LIG    C13   23  -1.804   0.486  -1.498
    1LIG    C14   24  -1.827   0.352  -1.573
    1LIG    C15   25  -1.939   0.365  -1.680
    1LIG    C16   26  -1.911   0.476  -1.781
    1LIG    C17   27  -1.881   0.609  -1.713
    1LIG    C18   28  -1.771   0.593  -1.607
    1LIG    C19   29  -1.932   0.528  -1.413
    1LIG    C20   30  -2.025   0.436  -1.354
    1LIG    C21   31  -2.145   0.476  -1.287
    1LIG    C22   32  -2.173   0.613  -1.282
    1LIG    C23   33  -2.084   0.705  -1.336
    1LIG    C24   34  -1.965   0.664  -1.397
    1LIG    C25   35  -2.241   0.380  -1.211
    1LIG    C26   36  -2.176   0.305  -1.093
    1LIG    C27   37  -2.357   0.465  -1.155
    1LIG    C28   38  -2.306   0.269  -1.300
    1LIG     O3   39  -2.110   0.839  -1.331
    1LIG     H5   40  -2.148   0.861  -1.244
    1LIG    HC2   41  -1.575   0.297  -1.467
    1LIG    HC3   42  -1.511   0.368  -1.319
    1LIG     HC   43  -1.440   0.563  -1.493
    1LIG    HC1   44  -1.249   0.337  -1.526
    1LIG    HC4   45  -1.200   0.416  -1.256
    1LIG    HC5   46  -1.373   0.373  -1.264
    1LIG    HC6   47  -1.412   0.154  -1.425
    1LIG    HC7   48  -1.194  -0.167  -1.243
    1LIG    HC8   49  -1.048   0.236  -1.214
    1LIG    HC9   50  -1.734   0.323  -1.622
    1LIG   HC10   51  -1.855   0.276  -1.501
    1LIG   HC11   52  -2.033   0.385  -1.629
    1LIG   HC12   53  -1.947   0.270  -1.733
    1LIG   HC13   54  -1.999   0.488  -1.844
    1LIG   HC14   55  -1.826   0.448  -1.843
    1LIG   HC15   56  -1.847   0.681  -1.788
    1LIG   HC16   57  -1.971   0.647  -1.665
    1LIG   HC17   58  -1.757   0.689  -1.558
    1LIG   HC18   59  -1.679   0.564  -1.657
    1LIG   HC19   60  -2.003   0.330  -1.361
    1LIG   HC20   61  -2.264   0.648  -1.235
    1LIG   HC21   62  -1.896   0.739  -1.433
    1LIG   HC22   63  -2.128   0.377  -1.026
    1LIG   HC23   64  -2.252   0.249  -1.038
    1LIG   HC24   65  -2.101   0.236  -1.131
    1LIG   HC25   66  -2.354   0.316  -1.386
    1LIG   HC26   67  -2.380   0.214  -1.242
    1LIG   HC27   68  -2.228   0.201  -1.335
    1LIG   HC28   69  -2.429   0.401  -1.103
    1LIG   HC29   70  -2.407   0.517  -1.237
    1LIG   HC30   71  -2.318   0.539  -1.084
    1LIG   HC31   72  -0.957   0.655  -1.681
    1LIG   HC32   73  -1.054   0.746  -1.563
    1LIG   HC33   74  -0.937   0.625  -1.506
   0.00000   0.00000   0.00000
