; Created by cgenff_charmm2gmx.py

[ moleculetype ]
; Name			   nrexcl
LIG				 3

[ atoms ]
;	 nr		  type	resnr residue  atom   cgnr	   charge		mass  typeB    chargeB		massB
; residue	 1 LIG rtp LIG q	qsum
     1     CG2R61      1    LIG     C1      1     -0.151     12.011   ;
     2     CG2R61      1    LIG     C2      2     -0.130     12.011   ;
     3     CG2R61      1    LIG     C3      3     -0.137     12.011   ;
     4     CG2R61      1    LIG     C4      4      0.101     12.011   ;
     5     CG2R61      1    LIG     C5      5     -0.104     12.011   ;
     6     CG2R61      1    LIG     C6      6     -0.129     12.011   ;
     7      CG1N1      1    LIG     C7      7      0.361     12.011   ;
     8      NG1T1      1    LIG     N1      8     -0.463     14.007   ;
     9     CG2DC1      1    LIG     C8      9      0.171     12.011   ;
    10     CG2DC2      1    LIG     C9     10     -0.254     12.011   ;
    11     CG2DC2      1    LIG    C10     11     -0.181     12.011   ;
    12      CG321      1    LIG    C11     12     -0.038     12.011   ;
    13      NG311      1    LIG     N2     13     -0.536     14.007   ;
    14     CG2D1O      1    LIG    C12     14     -0.044     12.011   ;
    15     HGPAM1      1    LIG    HN3     15      0.389      1.008   ;
    16     CG3C50      1    LIG    C13     16      1.599     12.011   ;
    17      NG3P2      1    LIG     N3     17     -0.701     14.007   ;
    18     CG3C53      1    LIG    C14     18      0.784     12.011   ;
    19       HGP2      1    LIG    HN4     19      0.353      1.008   ;
    20     NG2R53      1    LIG     N4     20     -0.171     14.007   ;
    21      CG331      1    LIG    C15     21     -0.169     12.011   ;
    22     CG2R53      1    LIG    C16     22     -0.361     12.011   ;
    23      OG2D1      1    LIG     O1     23     -0.342     15.999   ;
    24      NG3P3      1    LIG     N5     24     -0.267     14.007   ;
    25       HGP2      1    LIG     H1     25      0.301      1.008   ;
    26       HGP2      1    LIG     H2     26      0.301      1.008   ;
    27     CG2R61      1    LIG    C17     27     -0.169     12.011   ;
    28     CG2R61      1    LIG    C18     28     -0.128     12.011   ;
    29     CG2R61      1    LIG    C19     29     -0.125     12.011   ;
    30     CG2R61      1    LIG    C20     30      0.236     12.011   ;
    31     CG2R61      1    LIG    C21     31      0.015     12.011   ;
    32     CG2R61      1    LIG    C22     32     -0.133     12.011   ;
    33      CG331      1    LIG    C23     33     -0.262     12.011   ;
    34      OG301      1    LIG     O2     34     -0.390     15.999   ;
    35      CG331      1    LIG    C24     35     -0.094     12.011   ;
    36      HGR61      1    LIG     HC     36      0.116      1.008   ;
    37      HGR61      1    LIG    HC1     37      0.116      1.008   ;
    38      HGR61      1    LIG    HC2     38      0.116      1.008   ;
    39       HGA4      1    LIG    HC3     39      0.153      1.008   ;
    40       HGA4      1    LIG    HC4     40      0.150      1.008   ;
    41       HGA2      1    LIG    HC5     41      0.090      1.008   ;
    42       HGA4      1    LIG    HC6     42      0.152      1.008   ;
    43       HGP2      1    LIG    HN2     43      0.353      1.008   ;
    44       HGA1      1    LIG    HC7     44      0.073      1.008   ;
    45       HGA3      1    LIG    HC8     45      0.090      1.008   ;
    46       HGA3      1    LIG    HC9     46      0.090      1.008   ;
    47       HGA3      1    LIG   HC10     47      0.090      1.008   ;
    48       HGP2      1    LIG    HN1     48      0.301      1.008   ;
    49      HGR61      1    LIG   HC11     49      0.116      1.008   ;
    50      HGR61      1    LIG   HC12     50      0.116      1.008   ;
    51      HGR61      1    LIG   HC13     51      0.116      1.008   ;
    52       HGA3      1    LIG   HC14     52      0.090      1.008   ;
    53       HGA3      1    LIG   HC15     53      0.090      1.008   ;
    54       HGA3      1    LIG   HC16     54      0.090      1.008   ;
    55       HGA3      1    LIG   HC17     55      0.090      1.008   ;
    56       HGA3      1    LIG   HC18     56      0.090      1.008   ;
    57       HGA3      1    LIG   HC19     57      0.090      1.008   ;
    58       HGA2      1    LIG    H27     58      0.090      1.008   ;

[ bonds ]
;	ai	  aj funct			  c0			c1			  c2			c3
    1    16	 1 ;      CG2R61     CG3C50
    1     6	 1 ;      CG2R61     CG2R61
    1     2	 1 ;      CG2R61     CG2R61
    2     3	 1 ;      CG2R61     CG2R61
    2    36	 1 ;      CG2R61      HGR61
    3     4	 1 ;      CG2R61     CG2R61
    3     9	 1 ;      CG2R61     CG2DC1
    4     5	 1 ;      CG2R61     CG2R61
    4     7	 1 ;      CG2R61      CG1N1
    5     6	 1 ;      CG2R61     CG2R61
    5    37	 1 ;      CG2R61      HGR61
    6    38	 1 ;      CG2R61      HGR61
    7     8	 1 ;       CG1N1      NG1T1
    9    14	 1 ;      CG2DC1     CG2D1O
    9    10	 1 ;      CG2DC1     CG2DC2
   10    11	 1 ;      CG2DC2     CG2DC2
   10    39	 1 ;      CG2DC2       HGA4
   11    12	 1 ;      CG2DC2      CG321
   11    40	 1 ;      CG2DC2       HGA4
   12    13	 1 ;       CG321      NG311
   12    41	 1 ;       CG321       HGA2
   12    58	 1 ;       CG321       HGA2
   13    14	 1 ;       NG311     CG2D1O
   13    15	 1 ;       NG311     HGPAM1
   14    42	 1 ;      CG2D1O       HGA4
   16    22	 1 ;      CG3C50     CG2R53
   16    17	 1 ;      CG3C50      NG3P2
   16    27	 1 ;      CG3C50     CG2R61
   17    18	 1 ;       NG3P2     CG3C53
   17    19	 1 ;       NG3P2       HGP2
   17    43	 1 ;       NG3P2       HGP2
   18    24	 1 ;      CG3C53      NG3P3
   18    20	 1 ;      CG3C53     NG2R53
   18    44	 1 ;      CG3C53       HGA1
   20    21	 1 ;      NG2R53      CG331
   20    22	 1 ;      NG2R53     CG2R53
   21    45	 1 ;       CG331       HGA3
   21    46	 1 ;       CG331       HGA3
   21    47	 1 ;       CG331       HGA3
   22    23	 1 ;      CG2R53      OG2D1
   24    26	 1 ;       NG3P3       HGP2
   24    25	 1 ;       NG3P3       HGP2
   24    48	 1 ;       NG3P3       HGP2
   27    28	 1 ;      CG2R61     CG2R61
   27    32	 1 ;      CG2R61     CG2R61
   28    29	 1 ;      CG2R61     CG2R61
   28    49	 1 ;      CG2R61      HGR61
   29    30	 1 ;      CG2R61     CG2R61
   29    50	 1 ;      CG2R61      HGR61
   30    31	 1 ;      CG2R61     CG2R61
   30    34	 1 ;      CG2R61      OG301
   31    32	 1 ;      CG2R61     CG2R61
   31    33	 1 ;      CG2R61      CG331
   32    51	 1 ;      CG2R61      HGR61
   33    52	 1 ;       CG331       HGA3
   33    53	 1 ;       CG331       HGA3
   33    54	 1 ;       CG331       HGA3
   34    35	 1 ;       OG301      CG331
   35    55	 1 ;       CG331       HGA3
   35    56	 1 ;       CG331       HGA3
   35    57	 1 ;       CG331       HGA3

[ pairs ]
;	ai	  aj funct			  c0			c1			  c2			c3
    1     4	 1
    1     9	 1
    1    37	 1
    1    20	 1
    1    23	 1
    1    18	 1
    1    19	 1
    1    43	 1
    1    28	 1
    1    32	 1
    2    22	 1
    2    17	 1
    2    27	 1
    2     5	 1
    2    38	 1
    2     7	 1
    2    14	 1
    2    10	 1
    3    16	 1
    3     6	 1
    3    37	 1
    3     8	 1
    3    13	 1
    3    42	 1
    3    11	 1
    3    39	 1
    4    36	 1
    4    14	 1
    4    10	 1
    4    38	 1
    5    16	 1
    5     9	 1
    5     8	 1
    6    22	 1
    6    17	 1
    6    27	 1
    6    36	 1
    6     7	 1
    7     9	 1
    7    37	 1
    9    36	 1
    9    12	 1
    9    40	 1
    9    15	 1
   10    13	 1
   10    42	 1
   10    41	 1
   10    58	 1
   11    14	 1
   11    15	 1
   12    39	 1
   12    42	 1
   13    40	 1
   14    39	 1
   14    41	 1
   14    58	 1
   15    41	 1
   15    58	 1
   15    42	 1
   16    38	 1
   16    36	 1
   16    24	 1
   16    44	 1
   16    21	 1
   16    29	 1
   16    49	 1
   16    31	 1
   16    51	 1
   17    23	 1
   17    28	 1
   17    32	 1
   17    26	 1
   17    25	 1
   17    48	 1
   17    21	 1
   18    27	 1
   18    45	 1
   18    46	 1
   18    47	 1
   18    23	 1
   19    22	 1
   19    27	 1
   19    24	 1
   19    20	 1
   19    44	 1
   20    27	 1
   20    43	 1
   20    26	 1
   20    25	 1
   20    48	 1
   21    24	 1
   21    44	 1
   21    23	 1
   22    43	 1
   22    28	 1
   22    32	 1
   22    24	 1
   22    44	 1
   22    45	 1
   22    46	 1
   22    47	 1
   23    27	 1
   24    43	 1
   25    44	 1
   26    44	 1
   27    43	 1
   27    30	 1
   27    50	 1
   27    33	 1
   28    31	 1
   28    51	 1
   28    34	 1
   29    32	 1
   29    33	 1
   29    35	 1
   30    49	 1
   30    51	 1
   30    52	 1
   30    53	 1
   30    54	 1
   30    55	 1
   30    56	 1
   30    57	 1
   31    50	 1
   31    35	 1
   32    49	 1
   32    34	 1
   32    52	 1
   32    53	 1
   32    54	 1
   33    34	 1
   33    51	 1
   34    50	 1
   37    38	 1
   39    40	 1
   40    41	 1
   40    58	 1
   43    44	 1
   44    48	 1
   49    50	 1

[ angles ]
;	ai	  aj	ak funct			c0			  c1			c2			  c3
   16     1     6	5 ;     CG3C50     CG2R61     CG2R61
   16     1     2	5 ;     CG3C50     CG2R61     CG2R61
    6     1     2	5 ;     CG2R61     CG2R61     CG2R61
    1     2     3	5 ;     CG2R61     CG2R61     CG2R61
    1     2    36	5 ;     CG2R61     CG2R61      HGR61
    3     2    36	5 ;     CG2R61     CG2R61      HGR61
    2     3     4	5 ;     CG2R61     CG2R61     CG2R61
    2     3     9	5 ;     CG2R61     CG2R61     CG2DC1
    4     3     9	5 ;     CG2R61     CG2R61     CG2DC1
    5     4     3	5 ;     CG2R61     CG2R61     CG2R61
    5     4     7	5 ;     CG2R61     CG2R61      CG1N1
    3     4     7	5 ;     CG2R61     CG2R61      CG1N1
    6     5     4	5 ;     CG2R61     CG2R61     CG2R61
    6     5    37	5 ;     CG2R61     CG2R61      HGR61
    4     5    37	5 ;     CG2R61     CG2R61      HGR61
    1     6     5	5 ;     CG2R61     CG2R61     CG2R61
    1     6    38	5 ;     CG2R61     CG2R61      HGR61
    5     6    38	5 ;     CG2R61     CG2R61      HGR61
    4     7     8	5 ;     CG2R61      CG1N1      NG1T1
    3     9    14	5 ;     CG2R61     CG2DC1     CG2D1O
    3     9    10	5 ;     CG2R61     CG2DC1     CG2DC2
   14     9    10	5 ;     CG2D1O     CG2DC1     CG2DC2
    9    10    11	5 ;     CG2DC1     CG2DC2     CG2DC2
    9    10    39	5 ;     CG2DC1     CG2DC2       HGA4
   11    10    39	5 ;     CG2DC2     CG2DC2       HGA4
   10    11    12	5 ;     CG2DC2     CG2DC2      CG321
   10    11    40	5 ;     CG2DC2     CG2DC2       HGA4
   12    11    40	5 ;      CG321     CG2DC2       HGA4
   13    12    11	5 ;      NG311      CG321     CG2DC2
   13    12    41	5 ;      NG311      CG321       HGA2
   13    12    58	5 ;      NG311      CG321       HGA2
   11    12    41	5 ;     CG2DC2      CG321       HGA2
   11    12    58	5 ;     CG2DC2      CG321       HGA2
   41    12    58	5 ;       HGA2      CG321       HGA2
   14    13    15	5 ;     CG2D1O      NG311     HGPAM1
   14    13    12	5 ;     CG2D1O      NG311      CG321
   15    13    12	5 ;     HGPAM1      NG311      CG321
    9    14    13	5 ;     CG2DC1     CG2D1O      NG311
    9    14    42	5 ;     CG2DC1     CG2D1O       HGA4
   13    14    42	5 ;      NG311     CG2D1O       HGA4
   22    16    17	5 ;     CG2R53     CG3C50      NG3P2
   22    16    27	5 ;     CG2R53     CG3C50     CG2R61
   22    16     1	5 ;     CG2R53     CG3C50     CG2R61
   17    16    27	5 ;      NG3P2     CG3C50     CG2R61
   17    16     1	5 ;      NG3P2     CG3C50     CG2R61
   27    16     1	5 ;     CG2R61     CG3C50     CG2R61
   18    17    16	5 ;     CG3C53      NG3P2     CG3C50
   18    17    19	5 ;     CG3C53      NG3P2       HGP2
   18    17    43	5 ;     CG3C53      NG3P2       HGP2
   16    17    19	5 ;     CG3C50      NG3P2       HGP2
   16    17    43	5 ;     CG3C50      NG3P2       HGP2
   19    17    43	5 ;       HGP2      NG3P2       HGP2
   24    18    20	5 ;      NG3P3     CG3C53     NG2R53
   24    18    17	5 ;      NG3P3     CG3C53      NG3P2
   24    18    44	5 ;      NG3P3     CG3C53       HGA1
   20    18    17	5 ;     NG2R53     CG3C53      NG3P2
   20    18    44	5 ;     NG2R53     CG3C53       HGA1
   17    18    44	5 ;      NG3P2     CG3C53       HGA1
   18    20    21	5 ;     CG3C53     NG2R53      CG331
   18    20    22	5 ;     CG3C53     NG2R53     CG2R53
   21    20    22	5 ;      CG331     NG2R53     CG2R53
   20    21    45	5 ;     NG2R53      CG331       HGA3
   20    21    46	5 ;     NG2R53      CG331       HGA3
   20    21    47	5 ;     NG2R53      CG331       HGA3
   45    21    46	5 ;       HGA3      CG331       HGA3
   45    21    47	5 ;       HGA3      CG331       HGA3
   46    21    47	5 ;       HGA3      CG331       HGA3
   20    22    23	5 ;     NG2R53     CG2R53      OG2D1
   20    22    16	5 ;     NG2R53     CG2R53     CG3C50
   23    22    16	5 ;      OG2D1     CG2R53     CG3C50
   26    24    25	5 ;       HGP2      NG3P3       HGP2
   26    24    18	5 ;       HGP2      NG3P3     CG3C53
   26    24    48	5 ;       HGP2      NG3P3       HGP2
   25    24    18	5 ;       HGP2      NG3P3     CG3C53
   25    24    48	5 ;       HGP2      NG3P3       HGP2
   18    24    48	5 ;     CG3C53      NG3P3       HGP2
   16    27    28	5 ;     CG3C50     CG2R61     CG2R61
   16    27    32	5 ;     CG3C50     CG2R61     CG2R61
   28    27    32	5 ;     CG2R61     CG2R61     CG2R61
   27    28    29	5 ;     CG2R61     CG2R61     CG2R61
   27    28    49	5 ;     CG2R61     CG2R61      HGR61
   29    28    49	5 ;     CG2R61     CG2R61      HGR61
   28    29    30	5 ;     CG2R61     CG2R61     CG2R61
   28    29    50	5 ;     CG2R61     CG2R61      HGR61
   30    29    50	5 ;     CG2R61     CG2R61      HGR61
   29    30    31	5 ;     CG2R61     CG2R61     CG2R61
   29    30    34	5 ;     CG2R61     CG2R61      OG301
   31    30    34	5 ;     CG2R61     CG2R61      OG301
   32    31    30	5 ;     CG2R61     CG2R61     CG2R61
   32    31    33	5 ;     CG2R61     CG2R61      CG331
   30    31    33	5 ;     CG2R61     CG2R61      CG331
   27    32    31	5 ;     CG2R61     CG2R61     CG2R61
   27    32    51	5 ;     CG2R61     CG2R61      HGR61
   31    32    51	5 ;     CG2R61     CG2R61      HGR61
   31    33    52	5 ;     CG2R61      CG331       HGA3
   31    33    53	5 ;     CG2R61      CG331       HGA3
   31    33    54	5 ;     CG2R61      CG331       HGA3
   52    33    53	5 ;       HGA3      CG331       HGA3
   52    33    54	5 ;       HGA3      CG331       HGA3
   53    33    54	5 ;       HGA3      CG331       HGA3
   30    34    35	5 ;     CG2R61      OG301      CG331
   34    35    55	5 ;      OG301      CG331       HGA3
   34    35    56	5 ;      OG301      CG331       HGA3
   34    35    57	5 ;      OG301      CG331       HGA3
   55    35    56	5 ;       HGA3      CG331       HGA3
   55    35    57	5 ;       HGA3      CG331       HGA3
   56    35    57	5 ;       HGA3      CG331       HGA3

[ dihedrals ]
;	ai	  aj	ak	  al funct			  c0			c1			  c2			c3			  c4			c5
    6     1    16    22	 9 ;     CG2R61     CG2R61     CG3C50     CG2R53
    6     1    16    17	 9 ;     CG2R61     CG2R61     CG3C50      NG3P2
    6     1    16    27	 9 ;     CG2R61     CG2R61     CG3C50     CG2R61
    2     1    16    22	 9 ;     CG2R61     CG2R61     CG3C50     CG2R53
    2     1    16    17	 9 ;     CG2R61     CG2R61     CG3C50      NG3P2
    2     1    16    27	 9 ;     CG2R61     CG2R61     CG3C50     CG2R61
   16     1     6     5	 9 ;     CG3C50     CG2R61     CG2R61     CG2R61
   16     1     6    38	 9 ;     CG3C50     CG2R61     CG2R61      HGR61
    2     1     6     5	 9 ;     CG2R61     CG2R61     CG2R61     CG2R61
    2     1     6    38	 9 ;     CG2R61     CG2R61     CG2R61      HGR61
   16     1     2     3	 9 ;     CG3C50     CG2R61     CG2R61     CG2R61
   16     1     2    36	 9 ;     CG3C50     CG2R61     CG2R61      HGR61
    6     1     2     3	 9 ;     CG2R61     CG2R61     CG2R61     CG2R61
    6     1     2    36	 9 ;     CG2R61     CG2R61     CG2R61      HGR61
    1     2     3     4	 9 ;     CG2R61     CG2R61     CG2R61     CG2R61
    1     2     3     9	 9 ;     CG2R61     CG2R61     CG2R61     CG2DC1
   36     2     3     4	 9 ;      HGR61     CG2R61     CG2R61     CG2R61
   36     2     3     9	 9 ;      HGR61     CG2R61     CG2R61     CG2DC1
    2     3     4     5	 9 ;     CG2R61     CG2R61     CG2R61     CG2R61
    2     3     4     7	 9 ;     CG2R61     CG2R61     CG2R61      CG1N1
    9     3     4     5	 9 ;     CG2DC1     CG2R61     CG2R61     CG2R61
    9     3     4     7	 9 ;     CG2DC1     CG2R61     CG2R61      CG1N1
    2     3     9    14	 9 ;     CG2R61     CG2R61     CG2DC1     CG2D1O
    2     3     9    10	 9 ;     CG2R61     CG2R61     CG2DC1     CG2DC2
    4     3     9    14	 9 ;     CG2R61     CG2R61     CG2DC1     CG2D1O
    4     3     9    10	 9 ;     CG2R61     CG2R61     CG2DC1     CG2DC2
    3     4     5     6	 9 ;     CG2R61     CG2R61     CG2R61     CG2R61
    3     4     5    37	 9 ;     CG2R61     CG2R61     CG2R61      HGR61
    7     4     5     6	 9 ;      CG1N1     CG2R61     CG2R61     CG2R61
    7     4     5    37	 9 ;      CG1N1     CG2R61     CG2R61      HGR61
    4     5     6     1	 9 ;     CG2R61     CG2R61     CG2R61     CG2R61
    4     5     6    38	 9 ;     CG2R61     CG2R61     CG2R61      HGR61
   37     5     6     1	 9 ;      HGR61     CG2R61     CG2R61     CG2R61
   37     5     6    38	 9 ;      HGR61     CG2R61     CG2R61      HGR61
    3     9    14    13	 9 ;     CG2R61     CG2DC1     CG2D1O      NG311
    3     9    14    42	 9 ;     CG2R61     CG2DC1     CG2D1O       HGA4
   10     9    14    13	 9 ;     CG2DC2     CG2DC1     CG2D1O      NG311
   10     9    14    42	 9 ;     CG2DC2     CG2DC1     CG2D1O       HGA4
    3     9    10    11	 9 ;     CG2R61     CG2DC1     CG2DC2     CG2DC2
    3     9    10    39	 9 ;     CG2R61     CG2DC1     CG2DC2       HGA4
   14     9    10    11	 9 ;     CG2D1O     CG2DC1     CG2DC2     CG2DC2
   14     9    10    39	 9 ;     CG2D1O     CG2DC1     CG2DC2       HGA4
    9    10    11    12	 9 ;     CG2DC1     CG2DC2     CG2DC2      CG321
    9    10    11    40	 9 ;     CG2DC1     CG2DC2     CG2DC2       HGA4
   39    10    11    12	 9 ;       HGA4     CG2DC2     CG2DC2      CG321
   39    10    11    40	 9 ;       HGA4     CG2DC2     CG2DC2       HGA4
   10    11    12    13	 9 ;     CG2DC2     CG2DC2      CG321      NG311
   10    11    12    41	 9 ;     CG2DC2     CG2DC2      CG321       HGA2
   10    11    12    58	 9 ;     CG2DC2     CG2DC2      CG321       HGA2
   40    11    12    13	 9 ;       HGA4     CG2DC2      CG321      NG311
   40    11    12    41	 9 ;       HGA4     CG2DC2      CG321       HGA2
   40    11    12    58	 9 ;       HGA4     CG2DC2      CG321       HGA2
   11    12    13    14	 9 ;     CG2DC2      CG321      NG311     CG2D1O
   11    12    13    15	 9 ;     CG2DC2      CG321      NG311     HGPAM1
   41    12    13    14	 9 ;       HGA2      CG321      NG311     CG2D1O
   41    12    13    15	 9 ;       HGA2      CG321      NG311     HGPAM1
   58    12    13    14	 9 ;       HGA2      CG321      NG311     CG2D1O
   58    12    13    15	 9 ;       HGA2      CG321      NG311     HGPAM1
   15    13    14     9	 9 ;     HGPAM1      NG311     CG2D1O     CG2DC1
   15    13    14    42	 9 ;     HGPAM1      NG311     CG2D1O       HGA4
   12    13    14     9	 9 ;      CG321      NG311     CG2D1O     CG2DC1
   12    13    14    42	 9 ;      CG321      NG311     CG2D1O       HGA4
   17    16    22    20	 9 ;      NG3P2     CG3C50     CG2R53     NG2R53
   17    16    22    23	 9 ;      NG3P2     CG3C50     CG2R53      OG2D1
   27    16    22    20	 9 ;     CG2R61     CG3C50     CG2R53     NG2R53
   27    16    22    23	 9 ;     CG2R61     CG3C50     CG2R53      OG2D1
    1    16    22    20	 9 ;     CG2R61     CG3C50     CG2R53     NG2R53
    1    16    22    23	 9 ;     CG2R61     CG3C50     CG2R53      OG2D1
   22    16    17    18	 9 ;     CG2R53     CG3C50      NG3P2     CG3C53
   22    16    17    19	 9 ;     CG2R53     CG3C50      NG3P2       HGP2
   22    16    17    43	 9 ;     CG2R53     CG3C50      NG3P2       HGP2
   27    16    17    18	 9 ;     CG2R61     CG3C50      NG3P2     CG3C53
   27    16    17    19	 9 ;     CG2R61     CG3C50      NG3P2       HGP2
   27    16    17    43	 9 ;     CG2R61     CG3C50      NG3P2       HGP2
    1    16    17    18	 9 ;     CG2R61     CG3C50      NG3P2     CG3C53
    1    16    17    19	 9 ;     CG2R61     CG3C50      NG3P2       HGP2
    1    16    17    43	 9 ;     CG2R61     CG3C50      NG3P2       HGP2
   22    16    27    28	 9 ;     CG2R53     CG3C50     CG2R61     CG2R61
   22    16    27    32	 9 ;     CG2R53     CG3C50     CG2R61     CG2R61
   17    16    27    28	 9 ;      NG3P2     CG3C50     CG2R61     CG2R61
   17    16    27    32	 9 ;      NG3P2     CG3C50     CG2R61     CG2R61
    1    16    27    28	 9 ;     CG2R61     CG3C50     CG2R61     CG2R61
    1    16    27    32	 9 ;     CG2R61     CG3C50     CG2R61     CG2R61
   16    17    18    24	 9 ;     CG3C50      NG3P2     CG3C53      NG3P3
   16    17    18    20	 9 ;     CG3C50      NG3P2     CG3C53     NG2R53
   16    17    18    44	 9 ;     CG3C50      NG3P2     CG3C53       HGA1
   19    17    18    24	 9 ;       HGP2      NG3P2     CG3C53      NG3P3
   19    17    18    20	 9 ;       HGP2      NG3P2     CG3C53     NG2R53
   19    17    18    44	 9 ;       HGP2      NG3P2     CG3C53       HGA1
   43    17    18    24	 9 ;       HGP2      NG3P2     CG3C53      NG3P3
   43    17    18    20	 9 ;       HGP2      NG3P2     CG3C53     NG2R53
   43    17    18    44	 9 ;       HGP2      NG3P2     CG3C53       HGA1
   20    18    24    26	 9 ;     NG2R53     CG3C53      NG3P3       HGP2
   20    18    24    25	 9 ;     NG2R53     CG3C53      NG3P3       HGP2
   20    18    24    48	 9 ;     NG2R53     CG3C53      NG3P3       HGP2
   17    18    24    26	 9 ;      NG3P2     CG3C53      NG3P3       HGP2
   17    18    24    25	 9 ;      NG3P2     CG3C53      NG3P3       HGP2
   17    18    24    48	 9 ;      NG3P2     CG3C53      NG3P3       HGP2
   44    18    24    26	 9 ;       HGA1     CG3C53      NG3P3       HGP2
   44    18    24    25	 9 ;       HGA1     CG3C53      NG3P3       HGP2
   44    18    24    48	 9 ;       HGA1     CG3C53      NG3P3       HGP2
   24    18    20    21	 9 ;      NG3P3     CG3C53     NG2R53      CG331
   24    18    20    22	 9 ;      NG3P3     CG3C53     NG2R53     CG2R53
   17    18    20    21	 9 ;      NG3P2     CG3C53     NG2R53      CG331
   17    18    20    22	 9 ;      NG3P2     CG3C53     NG2R53     CG2R53
   44    18    20    21	 9 ;       HGA1     CG3C53     NG2R53      CG331
   44    18    20    22	 9 ;       HGA1     CG3C53     NG2R53     CG2R53
   18    20    21    45	 9 ;     CG3C53     NG2R53      CG331       HGA3
   18    20    21    46	 9 ;     CG3C53     NG2R53      CG331       HGA3
   18    20    21    47	 9 ;     CG3C53     NG2R53      CG331       HGA3
   22    20    21    45	 9 ;     CG2R53     NG2R53      CG331       HGA3
   22    20    21    46	 9 ;     CG2R53     NG2R53      CG331       HGA3
   22    20    21    47	 9 ;     CG2R53     NG2R53      CG331       HGA3
   18    20    22    23	 9 ;     CG3C53     NG2R53     CG2R53      OG2D1
   18    20    22    16	 9 ;     CG3C53     NG2R53     CG2R53     CG3C50
   21    20    22    23	 9 ;      CG331     NG2R53     CG2R53      OG2D1
   21    20    22    16	 9 ;      CG331     NG2R53     CG2R53     CG3C50
   16    27    28    29	 9 ;     CG3C50     CG2R61     CG2R61     CG2R61
   16    27    28    49	 9 ;     CG3C50     CG2R61     CG2R61      HGR61
   32    27    28    29	 9 ;     CG2R61     CG2R61     CG2R61     CG2R61
   32    27    28    49	 9 ;     CG2R61     CG2R61     CG2R61      HGR61
   16    27    32    31	 9 ;     CG3C50     CG2R61     CG2R61     CG2R61
   16    27    32    51	 9 ;     CG3C50     CG2R61     CG2R61      HGR61
   28    27    32    31	 9 ;     CG2R61     CG2R61     CG2R61     CG2R61
   28    27    32    51	 9 ;     CG2R61     CG2R61     CG2R61      HGR61
   27    28    29    30	 9 ;     CG2R61     CG2R61     CG2R61     CG2R61
   27    28    29    50	 9 ;     CG2R61     CG2R61     CG2R61      HGR61
   49    28    29    30	 9 ;      HGR61     CG2R61     CG2R61     CG2R61
   49    28    29    50	 9 ;      HGR61     CG2R61     CG2R61      HGR61
   28    29    30    31	 9 ;     CG2R61     CG2R61     CG2R61     CG2R61
   28    29    30    34	 9 ;     CG2R61     CG2R61     CG2R61      OG301
   50    29    30    31	 9 ;      HGR61     CG2R61     CG2R61     CG2R61
   50    29    30    34	 9 ;      HGR61     CG2R61     CG2R61      OG301
   29    30    31    32	 9 ;     CG2R61     CG2R61     CG2R61     CG2R61
   29    30    31    33	 9 ;     CG2R61     CG2R61     CG2R61      CG331
   34    30    31    32	 9 ;      OG301     CG2R61     CG2R61     CG2R61
   34    30    31    33	 9 ;      OG301     CG2R61     CG2R61      CG331
   29    30    34    35	 9 ;     CG2R61     CG2R61      OG301      CG331
   31    30    34    35	 9 ;     CG2R61     CG2R61      OG301      CG331
   30    31    32    27	 9 ;     CG2R61     CG2R61     CG2R61     CG2R61
   30    31    32    51	 9 ;     CG2R61     CG2R61     CG2R61      HGR61
   33    31    32    27	 9 ;      CG331     CG2R61     CG2R61     CG2R61
   33    31    32    51	 9 ;      CG331     CG2R61     CG2R61      HGR61
   32    31    33    52	 9 ;     CG2R61     CG2R61      CG331       HGA3
   32    31    33    53	 9 ;     CG2R61     CG2R61      CG331       HGA3
   32    31    33    54	 9 ;     CG2R61     CG2R61      CG331       HGA3
   30    31    33    52	 9 ;     CG2R61     CG2R61      CG331       HGA3
   30    31    33    53	 9 ;     CG2R61     CG2R61      CG331       HGA3
   30    31    33    54	 9 ;     CG2R61     CG2R61      CG331       HGA3
   30    34    35    55	 9 ;     CG2R61      OG301      CG331       HGA3
   30    34    35    56	 9 ;     CG2R61      OG301      CG331       HGA3
   30    34    35    57	 9 ;     CG2R61      OG301      CG331       HGA3

[ dihedrals ]
;	ai	  aj	ak	  al funct			  c0			c1			  c2			c3
   14     9    13    42	 2
   22    16    20    23	 2

