GROtesk MACabre and Sinister
   58
    1LIG     C1    1  -1.338   0.558  -1.638
    1LIG     C2    2  -1.465   0.500  -1.642
    1LIG     C3    3  -1.583   0.574  -1.625
    1LIG     C4    4  -1.571   0.711  -1.594
    1LIG     C5    5  -1.444   0.770  -1.585
    1LIG     C6    6  -1.329   0.694  -1.605
    1LIG     C7    7  -1.684   0.797  -1.574
    1LIG     N1    8  -1.774   0.871  -1.561
    1LIG     C8    9  -1.710   0.501  -1.651
    1LIG     C9   10  -1.755   0.401  -1.563
    1LIG    C10   11  -1.858   0.315  -1.599
    1LIG    C11   12  -1.919   0.335  -1.721
    1LIG     N2   13  -1.884   0.432  -1.807
    1LIG    C12   14  -1.780   0.512  -1.771
    1LIG    HN3   15  -1.933   0.446  -1.896
    1LIG    C13   16  -1.214   0.475  -1.677
    1LIG     N3   17  -1.229   0.394  -1.805
    1LIG    C14   18  -1.164   0.460  -1.895
    1LIG    HN4   19  -1.280   0.306  -1.817
    1LIG     N4   20  -1.129   0.587  -1.863
    1LIG    C15   21  -1.235   0.679  -1.906
    1LIG    C16   22  -1.109   0.576  -1.727
    1LIG     O1   23  -1.019   0.629  -1.663
    1LIG     N5   24  -1.135   0.415  -2.019
    1LIG     H1   25  -1.136   0.492  -2.086
    1LIG     H2   26  -1.044   0.370  -2.022
    1LIG    C17   27  -1.181   0.379  -1.562
    1LIG    C18   28  -1.171   0.242  -1.588
    1LIG    C19   29  -1.171   0.149  -1.484
    1LIG    C20   30  -1.183   0.188  -1.350
    1LIG    C21   31  -1.188   0.325  -1.321
    1LIG    C22   32  -1.185   0.419  -1.428
    1LIG    C23   33  -1.203   0.383  -1.183
    1LIG     O2   34  -1.190   0.079  -1.269
    1LIG    C24   35  -1.146  -0.048  -1.312
    1LIG     HC   36  -1.472   0.393  -1.660
    1LIG    HC1   37  -1.435   0.875  -1.561
    1LIG    HC2   38  -1.232   0.741  -1.597
    1LIG    HC3   39  -1.708   0.391  -1.466
    1LIG    HC4   40  -1.889   0.236  -1.533
    1LIG    HC5   41  -1.999   0.269  -1.749
    1LIG    HC6   42  -1.750   0.590  -1.840
    1LIG    HN2   43  -1.145   0.342  -1.782
    1LIG    HC7   44  -1.069   0.423  -1.856
    1LIG    HC8   45  -1.229   0.694  -2.013
    1LIG    HC9   46  -1.333   0.636  -1.881
    1LIG   HC10   47  -1.224   0.774  -1.854
    1LIG    HN1   48  -1.205   0.348  -2.046
    1LIG   HC11   49  -1.164   0.207  -1.690
    1LIG   HC12   50  -1.162   0.044  -1.508
    1LIG   HC13   51  -1.186   0.524  -1.405
    1LIG   HC14   52  -1.204   0.303  -1.110
    1LIG   HC15   53  -1.297   0.439  -1.177
    1LIG   HC16   54  -1.120   0.451  -1.163
    1LIG   HC17   55  -1.131  -0.113  -1.225
    1LIG   HC18   56  -1.221  -0.092  -1.378
    1LIG   HC19   57  -1.052  -0.038  -1.366
    1LIG    H27   58  -1.991   0.402  -1.674
   0.00000   0.00000   0.00000
