; Created by cgenff_charmm2gmx.py

[ moleculetype ]
; Name			   nrexcl
LIG				 3

[ atoms ]
;	 nr		  type	resnr residue  atom   cgnr	   charge		mass  typeB    chargeB		massB
; residue	 1 LIG rtp LIG q	qsum
     1     CG2R51      1    LIG     C1      1     -0.766     12.011   ;
     2     CG2RC0      1    LIG     C2      2      0.840     12.011   ;
     3     CG2RC0      1    LIG     C3      3      0.148     12.011   ;
     4     NG2R51      1    LIG     N1      4     -0.219     14.007   ;
     5     CG2R51      1    LIG     C4      5     -0.080     12.011   ;
     6      CG2O6      1    LIG     C5      6      0.551     12.011   ;
     7      OG2D1      1    LIG     O1      7     -0.508     15.999   ;
     8      NG2S0      1    LIG     N2      8     -0.122     14.007   ;
     9      CG331      1    LIG     C6      9     -0.197     12.011   ;
    10     CG2R61      1    LIG     C7     10     -0.263     12.011   ;
    11     CG2R61      1    LIG     C8     11     -0.006     12.011   ;
    12     CG2R61      1    LIG     C9     12     -0.207     12.011   ;
    13     CG2R61      1    LIG    C10     13     -0.458     12.011   ;
    14      CG1N1      1    LIG    C11     14      0.427     12.011   ;
    15      NG1T1      1    LIG     N3     15     -0.463     14.007   ;
    16      CG2O1      1    LIG    C12     16      0.600     12.011   ;
    17      NG2S1      1    LIG     N4     17     -0.397     14.007   ;
    18       HGP1      1    LIG     H1     18      0.263      1.008   ;
    19      OG2D1      1    LIG     O2     19     -0.474     15.999   ;
    20      CG311      1    LIG    C13     20      0.008     12.011   ;
    21      CG321      1    LIG    C14     21     -0.153     12.011   ;
    22     CG2R61      1    LIG    C15     22      0.057     12.011   ;
    23     CG2R61      1    LIG    C16     23     -0.218     12.011   ;
    24     CG2R66      1    LIG    C17     24      0.261     12.011   ;
    25       FGR1      1    LIG     F1     25     -0.210     18.998   ;
    26     CG2R61      1    LIG    C18     26     -0.240     12.011   ;
    27     CG2R66      1    LIG    C19     27      0.261     12.011   ;
    28     CG2R61      1    LIG    C20     28     -0.218     12.011   ;
    29       FGR1      1    LIG     F2     29     -0.210     18.998   ;
    30      CG311      1    LIG    C21     30      0.094     12.011   ;
    31      CG324      1    LIG    C22     31      0.178     12.011   ;
    32      NG3P2      1    LIG     N5     32     -0.444     14.007   ;
    33       HGP2      1    LIG     H2     33      0.348      1.008   ;
    34       HGP2      1    LIG     H3     34      0.348      1.008   ;
    35      CG324      1    LIG    C23     35      0.171     12.011   ;
    36     CG2R61      1    LIG    C24     36      0.036     12.011   ;
    37     CG2R61      1    LIG    C25     37     -0.124     12.011   ;
    38     CG2R61      1    LIG    C26     38      0.216     12.011   ;
    39     CG2R61      1    LIG    C27     39     -0.121     12.011   ;
    40     CG2R61      1    LIG    C28     40     -0.108     12.011   ;
    41     CG2R61      1    LIG    C29     41     -0.119     12.011   ;
    42      OG301      1    LIG     O3     42     -0.383     15.999   ;
    43      CG331      1    LIG    C30     43     -0.094     12.011   ;
    44      OG311      1    LIG     O4     44     -0.625     15.999   ;
    45       HGP1      1    LIG     H4     45      0.415      1.008   ;
    46      CG321      1    LIG    C31     46     -0.029     12.011   ;
    47      CG321      1    LIG    C32     47     -0.133     12.011   ;
    48      CG321      1    LIG    C33     48     -0.194     12.011   ;
    49      CG331      1    LIG    C34     49     -0.270     12.011   ;
    50      HGR52      1    LIG     HC     50      0.248      1.008   ;
    51      HGR61      1    LIG    HC1     51      0.184      1.008   ;
    52      HGR61      1    LIG    HC2     52      0.134      1.008   ;
    53      HGR61      1    LIG    HC3     53      0.197      1.008   ;
    54       HGA1      1    LIG    HC4     54      0.090      1.008   ;
    55       HGA2      1    LIG    HC5     55      0.090      1.008   ;
    56       HGA2      1    LIG    HC6     56      0.090      1.008   ;
    57      HGR62      1    LIG    HC7     57      0.174      1.008   ;
    58      HGR62      1    LIG    HC8     58      0.186      1.008   ;
    59      HGR62      1    LIG    HC9     59      0.174      1.008   ;
    60       HGA1      1    LIG   HC10     60      0.090      1.008   ;
    61       HGA2      1    LIG   HC11     61      0.090      1.008   ;
    62       HGA2      1    LIG   HC12     62      0.090      1.008   ;
    63       HGA2      1    LIG   HC13     63      0.090      1.008   ;
    64       HGA2      1    LIG   HC14     64      0.090      1.008   ;
    65      HGR61      1    LIG   HC15     65      0.116      1.008   ;
    66      HGR61      1    LIG   HC16     66      0.116      1.008   ;
    67      HGR61      1    LIG   HC17     67      0.116      1.008   ;
    68      HGR61      1    LIG   HC18     68      0.116      1.008   ;
    69       HGA2      1    LIG   HC19     69      0.090      1.008   ;
    70       HGA2      1    LIG   HC20     70      0.090      1.008   ;
    71       HGA2      1    LIG   HC21     71      0.090      1.008   ;
    72       HGA2      1    LIG   HC22     72      0.090      1.008   ;
    73       HGA2      1    LIG   HC23     73      0.090      1.008   ;
    74       HGA2      1    LIG   HC24     74      0.090      1.008   ;
    75       HGA3      1    LIG   HC25     75      0.090      1.008   ;
    76       HGA3      1    LIG   HC26     76      0.090      1.008   ;
    77       HGA3      1    LIG   HC27     77      0.090      1.008   ;
    78       HGA3      1    LIG   HC28     78      0.090      1.008   ;
    79       HGA3      1    LIG   HC29     79      0.090      1.008   ;
    80       HGA3      1    LIG   HC30     80      0.090      1.008   ;
    81       HGA3      1    LIG   HC31     81      0.090      1.008   ;
    82       HGA3      1    LIG   HC32     82      0.090      1.008   ;
    83       HGA3      1    LIG   HC33     83      0.090      1.008   ;

[ bonds ]
;	ai	  aj funct			  c0			c1			  c2			c3
    1    16	 1 ;      CG2R51      CG2O1
    1     2	 1 ;      CG2R51     CG2RC0
    1     5	 1 ;      CG2R51     CG2R51
    2    13	 1 ;      CG2RC0     CG2R61
    2     3	 1 ;      CG2RC0     CG2RC0
    3    10	 1 ;      CG2RC0     CG2R61
    3     4	 1 ;      CG2RC0     NG2R51
    4     5	 1 ;      NG2R51     CG2R51
    4     6	 1 ;      NG2R51      CG2O6
    5    50	 1 ;      CG2R51      HGR52
    6     7	 1 ;       CG2O6      OG2D1
    6     8	 1 ;       CG2O6      NG2S0
    8     9	 1 ;       NG2S0      CG331
    8    46	 1 ;       NG2S0      CG321
    9    78	 1 ;       CG331       HGA3
    9    79	 1 ;       CG331       HGA3
    9    80	 1 ;       CG331       HGA3
   10    11	 1 ;      CG2R61     CG2R61
   10    51	 1 ;      CG2R61      HGR61
   11    12	 1 ;      CG2R61     CG2R61
   11    14	 1 ;      CG2R61      CG1N1
   12    13	 1 ;      CG2R61     CG2R61
   12    52	 1 ;      CG2R61      HGR61
   13    53	 1 ;      CG2R61      HGR61
   14    15	 1 ;       CG1N1      NG1T1
   16    19	 1 ;       CG2O1      OG2D1
   16    17	 1 ;       CG2O1      NG2S1
   17    20	 1 ;       NG2S1      CG311
   17    18	 1 ;       NG2S1       HGP1
   20    30	 1 ;       CG311      CG311
   20    21	 1 ;       CG311      CG321
   20    54	 1 ;       CG311       HGA1
   21    22	 1 ;       CG321     CG2R61
   21    55	 1 ;       CG321       HGA2
   21    56	 1 ;       CG321       HGA2
   22    28	 1 ;      CG2R61     CG2R61
   22    23	 1 ;      CG2R61     CG2R61
   23    24	 1 ;      CG2R61     CG2R66
   23    57	 1 ;      CG2R61      HGR62
   24    26	 1 ;      CG2R66     CG2R61
   24    25	 1 ;      CG2R66       FGR1
   26    27	 1 ;      CG2R61     CG2R66
   26    58	 1 ;      CG2R61      HGR62
   27    29	 1 ;      CG2R66       FGR1
   27    28	 1 ;      CG2R66     CG2R61
   28    59	 1 ;      CG2R61      HGR62
   30    31	 1 ;       CG311      CG324
   30    44	 1 ;       CG311      OG311
   30    60	 1 ;       CG311       HGA1
   31    32	 1 ;       CG324      NG3P2
   31    61	 1 ;       CG324       HGA2
   31    62	 1 ;       CG324       HGA2
   32    34	 1 ;       NG3P2       HGP2
   32    35	 1 ;       NG3P2      CG324
   32    33	 1 ;       NG3P2       HGP2
   35    36	 1 ;       CG324     CG2R61
   35    63	 1 ;       CG324       HGA2
   35    64	 1 ;       CG324       HGA2
   36    37	 1 ;      CG2R61     CG2R61
   36    41	 1 ;      CG2R61     CG2R61
   37    38	 1 ;      CG2R61     CG2R61
   37    65	 1 ;      CG2R61      HGR61
   38    42	 1 ;      CG2R61      OG301
   38    39	 1 ;      CG2R61     CG2R61
   39    40	 1 ;      CG2R61     CG2R61
   39    66	 1 ;      CG2R61      HGR61
   40    41	 1 ;      CG2R61     CG2R61
   40    67	 1 ;      CG2R61      HGR61
   41    68	 1 ;      CG2R61      HGR61
   42    43	 1 ;       OG301      CG331
   43    75	 1 ;       CG331       HGA3
   43    76	 1 ;       CG331       HGA3
   43    77	 1 ;       CG331       HGA3
   44    45	 1 ;       OG311       HGP1
   46    47	 1 ;       CG321      CG321
   46    69	 1 ;       CG321       HGA2
   46    70	 1 ;       CG321       HGA2
   47    48	 1 ;       CG321      CG321
   47    71	 1 ;       CG321       HGA2
   47    72	 1 ;       CG321       HGA2
   48    49	 1 ;       CG321      CG331
   48    73	 1 ;       CG321       HGA2
   48    74	 1 ;       CG321       HGA2
   49    81	 1 ;       CG331       HGA3
   49    82	 1 ;       CG331       HGA3
   49    83	 1 ;       CG331       HGA3

[ pairs ]
;	ai	  aj funct			  c0			c1			  c2			c3
    1    12	 1
    1    53	 1
    1    10	 1
    1     6	 1
    1    20	 1
    1    18	 1
    2    19	 1
    2    17	 1
    2    50	 1
    2    11	 1
    2    51	 1
    2     6	 1
    2    52	 1
    3    16	 1
    3    12	 1
    3    53	 1
    3    50	 1
    3     7	 1
    3     8	 1
    3    14	 1
    4    16	 1
    4    13	 1
    4    11	 1
    4    51	 1
    4     9	 1
    4    46	 1
    5    19	 1
    5    17	 1
    5    13	 1
    5    10	 1
    5     7	 1
    5     8	 1
    6    10	 1
    6    50	 1
    6    78	 1
    6    79	 1
    6    80	 1
    6    47	 1
    6    69	 1
    6    70	 1
    7     9	 1
    7    46	 1
    8    48	 1
    8    71	 1
    8    72	 1
    9    47	 1
    9    69	 1
    9    70	 1
   10    13	 1
   10    52	 1
   10    15	 1
   11    53	 1
   12    51	 1
   12    15	 1
   13    16	 1
   13    14	 1
   14    51	 1
   14    52	 1
   16    50	 1
   16    30	 1
   16    21	 1
   16    54	 1
   17    31	 1
   17    44	 1
   17    60	 1
   17    22	 1
   17    55	 1
   17    56	 1
   18    19	 1
   18    30	 1
   18    21	 1
   18    54	 1
   19    20	 1
   20    28	 1
   20    23	 1
   20    32	 1
   20    61	 1
   20    62	 1
   20    45	 1
   21    31	 1
   21    44	 1
   21    60	 1
   21    27	 1
   21    59	 1
   21    24	 1
   21    57	 1
   22    30	 1
   22    54	 1
   22    26	 1
   22    25	 1
   22    29	 1
   23    55	 1
   23    56	 1
   23    27	 1
   23    59	 1
   23    58	 1
   24    28	 1
   24    29	 1
   25    57	 1
   25    27	 1
   25    58	 1
   26    57	 1
   26    59	 1
   28    55	 1
   28    56	 1
   28    57	 1
   28    58	 1
   29    58	 1
   29    59	 1
   30    55	 1
   30    56	 1
   30    34	 1
   30    35	 1
   30    33	 1
   31    54	 1
   31    45	 1
   31    36	 1
   31    63	 1
   31    64	 1
   32    44	 1
   32    60	 1
   32    37	 1
   32    41	 1
   33    61	 1
   33    62	 1
   33    36	 1
   33    63	 1
   33    64	 1
   34    61	 1
   34    62	 1
   34    36	 1
   34    63	 1
   34    64	 1
   35    61	 1
   35    62	 1
   35    38	 1
   35    65	 1
   35    40	 1
   35    68	 1
   36    42	 1
   36    39	 1
   36    67	 1
   37    63	 1
   37    64	 1
   37    40	 1
   37    68	 1
   37    43	 1
   37    66	 1
   38    41	 1
   38    67	 1
   38    75	 1
   38    76	 1
   38    77	 1
   39    65	 1
   39    43	 1
   39    68	 1
   40    42	 1
   41    63	 1
   41    64	 1
   41    65	 1
   41    66	 1
   42    65	 1
   42    66	 1
   44    54	 1
   44    61	 1
   44    62	 1
   45    60	 1
   46    78	 1
   46    79	 1
   46    80	 1
   46    49	 1
   46    73	 1
   46    74	 1
   47    81	 1
   47    82	 1
   47    83	 1
   48    69	 1
   48    70	 1
   49    71	 1
   49    72	 1
   52    53	 1
   54    60	 1
   54    55	 1
   54    56	 1
   60    61	 1
   60    62	 1
   66    67	 1
   67    68	 1
   69    71	 1
   69    72	 1
   70    71	 1
   70    72	 1
   71    73	 1
   71    74	 1
   72    73	 1
   72    74	 1
   73    81	 1
   73    82	 1
   73    83	 1
   74    81	 1
   74    82	 1
   74    83	 1

[ angles ]
;	ai	  aj	ak funct			c0			  c1			c2			  c3
   16     1     2	5 ;      CG2O1     CG2R51     CG2RC0
   16     1     5	5 ;      CG2O1     CG2R51     CG2R51
    2     1     5	5 ;     CG2RC0     CG2R51     CG2R51
   13     2     1	5 ;     CG2R61     CG2RC0     CG2R51
   13     2     3	5 ;     CG2R61     CG2RC0     CG2RC0
    1     2     3	5 ;     CG2R51     CG2RC0     CG2RC0
    2     3    10	5 ;     CG2RC0     CG2RC0     CG2R61
    2     3     4	5 ;     CG2RC0     CG2RC0     NG2R51
   10     3     4	5 ;     CG2R61     CG2RC0     NG2R51
    5     4     3	5 ;     CG2R51     NG2R51     CG2RC0
    5     4     6	5 ;     CG2R51     NG2R51      CG2O6
    3     4     6	5 ;     CG2RC0     NG2R51      CG2O6
    1     5     4	5 ;     CG2R51     CG2R51     NG2R51
    1     5    50	5 ;     CG2R51     CG2R51      HGR52
    4     5    50	5 ;     NG2R51     CG2R51      HGR52
    4     6     7	5 ;     NG2R51      CG2O6      OG2D1
    4     6     8	5 ;     NG2R51      CG2O6      NG2S0
    7     6     8	5 ;      OG2D1      CG2O6      NG2S0
    6     8     9	5 ;      CG2O6      NG2S0      CG331
    6     8    46	5 ;      CG2O6      NG2S0      CG321
    9     8    46	5 ;      CG331      NG2S0      CG321
    8     9    78	5 ;      NG2S0      CG331       HGA3
    8     9    79	5 ;      NG2S0      CG331       HGA3
    8     9    80	5 ;      NG2S0      CG331       HGA3
   78     9    79	5 ;       HGA3      CG331       HGA3
   78     9    80	5 ;       HGA3      CG331       HGA3
   79     9    80	5 ;       HGA3      CG331       HGA3
   11    10     3	5 ;     CG2R61     CG2R61     CG2RC0
   11    10    51	5 ;     CG2R61     CG2R61      HGR61
    3    10    51	5 ;     CG2RC0     CG2R61      HGR61
   12    11    14	5 ;     CG2R61     CG2R61      CG1N1
   12    11    10	5 ;     CG2R61     CG2R61     CG2R61
   14    11    10	5 ;      CG1N1     CG2R61     CG2R61
   13    12    11	5 ;     CG2R61     CG2R61     CG2R61
   13    12    52	5 ;     CG2R61     CG2R61      HGR61
   11    12    52	5 ;     CG2R61     CG2R61      HGR61
   12    13     2	5 ;     CG2R61     CG2R61     CG2RC0
   12    13    53	5 ;     CG2R61     CG2R61      HGR61
    2    13    53	5 ;     CG2RC0     CG2R61      HGR61
   11    14    15	5 ;     CG2R61      CG1N1      NG1T1
   19    16    17	5 ;      OG2D1      CG2O1      NG2S1
   19    16     1	5 ;      OG2D1      CG2O1     CG2R51
   17    16     1	5 ;      NG2S1      CG2O1     CG2R51
   20    17    16	5 ;      CG311      NG2S1      CG2O1
   20    17    18	5 ;      CG311      NG2S1       HGP1
   16    17    18	5 ;      CG2O1      NG2S1       HGP1
   30    20    21	5 ;      CG311      CG311      CG321
   30    20    17	5 ;      CG311      CG311      NG2S1
   30    20    54	5 ;      CG311      CG311       HGA1
   21    20    17	5 ;      CG321      CG311      NG2S1
   21    20    54	5 ;      CG321      CG311       HGA1
   17    20    54	5 ;      NG2S1      CG311       HGA1
   20    21    22	5 ;      CG311      CG321     CG2R61
   20    21    55	5 ;      CG311      CG321       HGA2
   20    21    56	5 ;      CG311      CG321       HGA2
   22    21    55	5 ;     CG2R61      CG321       HGA2
   22    21    56	5 ;     CG2R61      CG321       HGA2
   55    21    56	5 ;       HGA2      CG321       HGA2
   28    22    21	5 ;     CG2R61     CG2R61      CG321
   28    22    23	5 ;     CG2R61     CG2R61     CG2R61
   21    22    23	5 ;      CG321     CG2R61     CG2R61
   22    23    24	5 ;     CG2R61     CG2R61     CG2R66
   22    23    57	5 ;     CG2R61     CG2R61      HGR62
   24    23    57	5 ;     CG2R66     CG2R61      HGR62
   26    24    23	5 ;     CG2R61     CG2R66     CG2R61
   26    24    25	5 ;     CG2R61     CG2R66       FGR1
   23    24    25	5 ;     CG2R61     CG2R66       FGR1
   27    26    24	5 ;     CG2R66     CG2R61     CG2R66
   27    26    58	5 ;     CG2R66     CG2R61      HGR62
   24    26    58	5 ;     CG2R66     CG2R61      HGR62
   29    27    28	5 ;       FGR1     CG2R66     CG2R61
   29    27    26	5 ;       FGR1     CG2R66     CG2R61
   28    27    26	5 ;     CG2R61     CG2R66     CG2R61
   27    28    22	5 ;     CG2R66     CG2R61     CG2R61
   27    28    59	5 ;     CG2R66     CG2R61      HGR62
   22    28    59	5 ;     CG2R61     CG2R61      HGR62
   31    30    44	5 ;      CG324      CG311      OG311
   31    30    20	5 ;      CG324      CG311      CG311
   31    30    60	5 ;      CG324      CG311       HGA1
   44    30    20	5 ;      OG311      CG311      CG311
   44    30    60	5 ;      OG311      CG311       HGA1
   20    30    60	5 ;      CG311      CG311       HGA1
   32    31    30	5 ;      NG3P2      CG324      CG311
   32    31    61	5 ;      NG3P2      CG324       HGA2
   32    31    62	5 ;      NG3P2      CG324       HGA2
   30    31    61	5 ;      CG311      CG324       HGA2
   30    31    62	5 ;      CG311      CG324       HGA2
   61    31    62	5 ;       HGA2      CG324       HGA2
   34    32    31	5 ;       HGP2      NG3P2      CG324
   34    32    35	5 ;       HGP2      NG3P2      CG324
   34    32    33	5 ;       HGP2      NG3P2       HGP2
   31    32    35	5 ;      CG324      NG3P2      CG324
   31    32    33	5 ;      CG324      NG3P2       HGP2
   35    32    33	5 ;      CG324      NG3P2       HGP2
   32    35    36	5 ;      NG3P2      CG324     CG2R61
   32    35    63	5 ;      NG3P2      CG324       HGA2
   32    35    64	5 ;      NG3P2      CG324       HGA2
   36    35    63	5 ;     CG2R61      CG324       HGA2
   36    35    64	5 ;     CG2R61      CG324       HGA2
   63    35    64	5 ;       HGA2      CG324       HGA2
   35    36    37	5 ;      CG324     CG2R61     CG2R61
   35    36    41	5 ;      CG324     CG2R61     CG2R61
   37    36    41	5 ;     CG2R61     CG2R61     CG2R61
   36    37    38	5 ;     CG2R61     CG2R61     CG2R61
   36    37    65	5 ;     CG2R61     CG2R61      HGR61
   38    37    65	5 ;     CG2R61     CG2R61      HGR61
   37    38    42	5 ;     CG2R61     CG2R61      OG301
   37    38    39	5 ;     CG2R61     CG2R61     CG2R61
   42    38    39	5 ;      OG301     CG2R61     CG2R61
   38    39    40	5 ;     CG2R61     CG2R61     CG2R61
   38    39    66	5 ;     CG2R61     CG2R61      HGR61
   40    39    66	5 ;     CG2R61     CG2R61      HGR61
   41    40    39	5 ;     CG2R61     CG2R61     CG2R61
   41    40    67	5 ;     CG2R61     CG2R61      HGR61
   39    40    67	5 ;     CG2R61     CG2R61      HGR61
   36    41    40	5 ;     CG2R61     CG2R61     CG2R61
   36    41    68	5 ;     CG2R61     CG2R61      HGR61
   40    41    68	5 ;     CG2R61     CG2R61      HGR61
   43    42    38	5 ;      CG331      OG301     CG2R61
   42    43    75	5 ;      OG301      CG331       HGA3
   42    43    76	5 ;      OG301      CG331       HGA3
   42    43    77	5 ;      OG301      CG331       HGA3
   75    43    76	5 ;       HGA3      CG331       HGA3
   75    43    77	5 ;       HGA3      CG331       HGA3
   76    43    77	5 ;       HGA3      CG331       HGA3
   30    44    45	5 ;      CG311      OG311       HGP1
    8    46    47	5 ;      NG2S0      CG321      CG321
    8    46    69	5 ;      NG2S0      CG321       HGA2
    8    46    70	5 ;      NG2S0      CG321       HGA2
   47    46    69	5 ;      CG321      CG321       HGA2
   47    46    70	5 ;      CG321      CG321       HGA2
   69    46    70	5 ;       HGA2      CG321       HGA2
   46    47    48	5 ;      CG321      CG321      CG321
   46    47    71	5 ;      CG321      CG321       HGA2
   46    47    72	5 ;      CG321      CG321       HGA2
   48    47    71	5 ;      CG321      CG321       HGA2
   48    47    72	5 ;      CG321      CG321       HGA2
   71    47    72	5 ;       HGA2      CG321       HGA2
   47    48    49	5 ;      CG321      CG321      CG331
   47    48    73	5 ;      CG321      CG321       HGA2
   47    48    74	5 ;      CG321      CG321       HGA2
   49    48    73	5 ;      CG331      CG321       HGA2
   49    48    74	5 ;      CG331      CG321       HGA2
   73    48    74	5 ;       HGA2      CG321       HGA2
   48    49    81	5 ;      CG321      CG331       HGA3
   48    49    82	5 ;      CG321      CG331       HGA3
   48    49    83	5 ;      CG321      CG331       HGA3
   81    49    82	5 ;       HGA3      CG331       HGA3
   81    49    83	5 ;       HGA3      CG331       HGA3
   82    49    83	5 ;       HGA3      CG331       HGA3

[ dihedrals ]
;	ai	  aj	ak	  al funct			  c0			c1			  c2			c3			  c4			c5
    2     1    16    19	 9 ;     CG2RC0     CG2R51      CG2O1      OG2D1
    2     1    16    17	 9 ;     CG2RC0     CG2R51      CG2O1      NG2S1
    5     1    16    19	 9 ;     CG2R51     CG2R51      CG2O1      OG2D1
    5     1    16    17	 9 ;     CG2R51     CG2R51      CG2O1      NG2S1
   16     1     2    13	 9 ;      CG2O1     CG2R51     CG2RC0     CG2R61
   16     1     2     3	 9 ;      CG2O1     CG2R51     CG2RC0     CG2RC0
    5     1     2    13	 9 ;     CG2R51     CG2R51     CG2RC0     CG2R61
    5     1     2     3	 9 ;     CG2R51     CG2R51     CG2RC0     CG2RC0
   16     1     5     4	 9 ;      CG2O1     CG2R51     CG2R51     NG2R51
   16     1     5    50	 9 ;      CG2O1     CG2R51     CG2R51      HGR52
    2     1     5     4	 9 ;     CG2RC0     CG2R51     CG2R51     NG2R51
    2     1     5    50	 9 ;     CG2RC0     CG2R51     CG2R51      HGR52
    1     2    13    12	 9 ;     CG2R51     CG2RC0     CG2R61     CG2R61
    1     2    13    53	 9 ;     CG2R51     CG2RC0     CG2R61      HGR61
    3     2    13    12	 9 ;     CG2RC0     CG2RC0     CG2R61     CG2R61
    3     2    13    53	 9 ;     CG2RC0     CG2RC0     CG2R61      HGR61
   13     2     3    10	 9 ;     CG2R61     CG2RC0     CG2RC0     CG2R61
   13     2     3     4	 9 ;     CG2R61     CG2RC0     CG2RC0     NG2R51
    1     2     3    10	 9 ;     CG2R51     CG2RC0     CG2RC0     CG2R61
    1     2     3     4	 9 ;     CG2R51     CG2RC0     CG2RC0     NG2R51
    2     3    10    11	 9 ;     CG2RC0     CG2RC0     CG2R61     CG2R61
    2     3    10    51	 9 ;     CG2RC0     CG2RC0     CG2R61      HGR61
    4     3    10    11	 9 ;     NG2R51     CG2RC0     CG2R61     CG2R61
    4     3    10    51	 9 ;     NG2R51     CG2RC0     CG2R61      HGR61
    2     3     4     5	 9 ;     CG2RC0     CG2RC0     NG2R51     CG2R51
    2     3     4     6	 9 ;     CG2RC0     CG2RC0     NG2R51      CG2O6
   10     3     4     5	 9 ;     CG2R61     CG2RC0     NG2R51     CG2R51
   10     3     4     6	 9 ;     CG2R61     CG2RC0     NG2R51      CG2O6
    3     4     5     1	 9 ;     CG2RC0     NG2R51     CG2R51     CG2R51
    3     4     5    50	 9 ;     CG2RC0     NG2R51     CG2R51      HGR52
    6     4     5     1	 9 ;      CG2O6     NG2R51     CG2R51     CG2R51
    6     4     5    50	 9 ;      CG2O6     NG2R51     CG2R51      HGR52
    5     4     6     7	 9 ;     CG2R51     NG2R51      CG2O6      OG2D1
    5     4     6     8	 9 ;     CG2R51     NG2R51      CG2O6      NG2S0
    3     4     6     7	 9 ;     CG2RC0     NG2R51      CG2O6      OG2D1
    3     4     6     8	 9 ;     CG2RC0     NG2R51      CG2O6      NG2S0
    4     6     8     9	 9 ;     NG2R51      CG2O6      NG2S0      CG331
    4     6     8    46	 9 ;     NG2R51      CG2O6      NG2S0      CG321
    7     6     8     9	 9 ;      OG2D1      CG2O6      NG2S0      CG331
    7     6     8    46	 9 ;      OG2D1      CG2O6      NG2S0      CG321
    6     8     9    78	 9 ;      CG2O6      NG2S0      CG331       HGA3
    6     8     9    79	 9 ;      CG2O6      NG2S0      CG331       HGA3
    6     8     9    80	 9 ;      CG2O6      NG2S0      CG331       HGA3
   46     8     9    78	 9 ;      CG321      NG2S0      CG331       HGA3
   46     8     9    79	 9 ;      CG321      NG2S0      CG331       HGA3
   46     8     9    80	 9 ;      CG321      NG2S0      CG331       HGA3
    6     8    46    47	 9 ;      CG2O6      NG2S0      CG321      CG321
    6     8    46    69	 9 ;      CG2O6      NG2S0      CG321       HGA2
    6     8    46    70	 9 ;      CG2O6      NG2S0      CG321       HGA2
    9     8    46    47	 9 ;      CG331      NG2S0      CG321      CG321
    9     8    46    69	 9 ;      CG331      NG2S0      CG321       HGA2
    9     8    46    70	 9 ;      CG331      NG2S0      CG321       HGA2
    3    10    11    12	 9 ;     CG2RC0     CG2R61     CG2R61     CG2R61
    3    10    11    14	 9 ;     CG2RC0     CG2R61     CG2R61      CG1N1
   51    10    11    12	 9 ;      HGR61     CG2R61     CG2R61     CG2R61
   51    10    11    14	 9 ;      HGR61     CG2R61     CG2R61      CG1N1
   14    11    12    13	 9 ;      CG1N1     CG2R61     CG2R61     CG2R61
   14    11    12    52	 9 ;      CG1N1     CG2R61     CG2R61      HGR61
   10    11    12    13	 9 ;     CG2R61     CG2R61     CG2R61     CG2R61
   10    11    12    52	 9 ;     CG2R61     CG2R61     CG2R61      HGR61
   11    12    13     2	 9 ;     CG2R61     CG2R61     CG2R61     CG2RC0
   11    12    13    53	 9 ;     CG2R61     CG2R61     CG2R61      HGR61
   52    12    13     2	 9 ;      HGR61     CG2R61     CG2R61     CG2RC0
   52    12    13    53	 9 ;      HGR61     CG2R61     CG2R61      HGR61
   19    16    17    20	 9 ;      OG2D1      CG2O1      NG2S1      CG311
   19    16    17    18	 9 ;      OG2D1      CG2O1      NG2S1       HGP1
    1    16    17    20	 9 ;     CG2R51      CG2O1      NG2S1      CG311
    1    16    17    18	 9 ;     CG2R51      CG2O1      NG2S1       HGP1
   16    17    20    30	 9 ;      CG2O1      NG2S1      CG311      CG311
   16    17    20    21	 9 ;      CG2O1      NG2S1      CG311      CG321
   16    17    20    54	 9 ;      CG2O1      NG2S1      CG311       HGA1
   18    17    20    30	 9 ;       HGP1      NG2S1      CG311      CG311
   18    17    20    21	 9 ;       HGP1      NG2S1      CG311      CG321
   18    17    20    54	 9 ;       HGP1      NG2S1      CG311       HGA1
   21    20    30    31	 9 ;      CG321      CG311      CG311      CG324
   21    20    30    44	 9 ;      CG321      CG311      CG311      OG311
   21    20    30    60	 9 ;      CG321      CG311      CG311       HGA1
   17    20    30    31	 9 ;      NG2S1      CG311      CG311      CG324
   17    20    30    44	 9 ;      NG2S1      CG311      CG311      OG311
   17    20    30    60	 9 ;      NG2S1      CG311      CG311       HGA1
   54    20    30    31	 9 ;       HGA1      CG311      CG311      CG324
   54    20    30    44	 9 ;       HGA1      CG311      CG311      OG311
   54    20    30    60	 9 ;       HGA1      CG311      CG311       HGA1
   30    20    21    22	 9 ;      CG311      CG311      CG321     CG2R61
   30    20    21    55	 9 ;      CG311      CG311      CG321       HGA2
   30    20    21    56	 9 ;      CG311      CG311      CG321       HGA2
   17    20    21    22	 9 ;      NG2S1      CG311      CG321     CG2R61
   17    20    21    55	 9 ;      NG2S1      CG311      CG321       HGA2
   17    20    21    56	 9 ;      NG2S1      CG311      CG321       HGA2
   54    20    21    22	 9 ;       HGA1      CG311      CG321     CG2R61
   54    20    21    55	 9 ;       HGA1      CG311      CG321       HGA2
   54    20    21    56	 9 ;       HGA1      CG311      CG321       HGA2
   20    21    22    28	 9 ;      CG311      CG321     CG2R61     CG2R61
   20    21    22    23	 9 ;      CG311      CG321     CG2R61     CG2R61
   55    21    22    28	 9 ;       HGA2      CG321     CG2R61     CG2R61
   55    21    22    23	 9 ;       HGA2      CG321     CG2R61     CG2R61
   56    21    22    28	 9 ;       HGA2      CG321     CG2R61     CG2R61
   56    21    22    23	 9 ;       HGA2      CG321     CG2R61     CG2R61
   21    22    28    27	 9 ;      CG321     CG2R61     CG2R61     CG2R66
   21    22    28    59	 9 ;      CG321     CG2R61     CG2R61      HGR62
   23    22    28    27	 9 ;     CG2R61     CG2R61     CG2R61     CG2R66
   23    22    28    59	 9 ;     CG2R61     CG2R61     CG2R61      HGR62
   28    22    23    24	 9 ;     CG2R61     CG2R61     CG2R61     CG2R66
   28    22    23    57	 9 ;     CG2R61     CG2R61     CG2R61      HGR62
   21    22    23    24	 9 ;      CG321     CG2R61     CG2R61     CG2R66
   21    22    23    57	 9 ;      CG321     CG2R61     CG2R61      HGR62
   22    23    24    26	 9 ;     CG2R61     CG2R61     CG2R66     CG2R61
   22    23    24    25	 9 ;     CG2R61     CG2R61     CG2R66       FGR1
   57    23    24    26	 9 ;      HGR62     CG2R61     CG2R66     CG2R61
   57    23    24    25	 9 ;      HGR62     CG2R61     CG2R66       FGR1
   23    24    26    27	 9 ;     CG2R61     CG2R66     CG2R61     CG2R66
   23    24    26    58	 9 ;     CG2R61     CG2R66     CG2R61      HGR62
   25    24    26    27	 9 ;       FGR1     CG2R66     CG2R61     CG2R66
   25    24    26    58	 9 ;       FGR1     CG2R66     CG2R61      HGR62
   24    26    27    29	 9 ;     CG2R66     CG2R61     CG2R66       FGR1
   24    26    27    28	 9 ;     CG2R66     CG2R61     CG2R66     CG2R61
   58    26    27    29	 9 ;      HGR62     CG2R61     CG2R66       FGR1
   58    26    27    28	 9 ;      HGR62     CG2R61     CG2R66     CG2R61
   29    27    28    22	 9 ;       FGR1     CG2R66     CG2R61     CG2R61
   29    27    28    59	 9 ;       FGR1     CG2R66     CG2R61      HGR62
   26    27    28    22	 9 ;     CG2R61     CG2R66     CG2R61     CG2R61
   26    27    28    59	 9 ;     CG2R61     CG2R66     CG2R61      HGR62
   44    30    31    32	 9 ;      OG311      CG311      CG324      NG3P2
   44    30    31    61	 9 ;      OG311      CG311      CG324       HGA2
   44    30    31    62	 9 ;      OG311      CG311      CG324       HGA2
   20    30    31    32	 9 ;      CG311      CG311      CG324      NG3P2
   20    30    31    61	 9 ;      CG311      CG311      CG324       HGA2
   20    30    31    62	 9 ;      CG311      CG311      CG324       HGA2
   60    30    31    32	 9 ;       HGA1      CG311      CG324      NG3P2
   60    30    31    61	 9 ;       HGA1      CG311      CG324       HGA2
   60    30    31    62	 9 ;       HGA1      CG311      CG324       HGA2
   31    30    44    45	 9 ;      CG324      CG311      OG311       HGP1
   20    30    44    45	 9 ;      CG311      CG311      OG311       HGP1
   60    30    44    45	 9 ;       HGA1      CG311      OG311       HGP1
   30    31    32    34	 9 ;      CG311      CG324      NG3P2       HGP2
   30    31    32    35	 9 ;      CG311      CG324      NG3P2      CG324
   30    31    32    33	 9 ;      CG311      CG324      NG3P2       HGP2
   61    31    32    34	 9 ;       HGA2      CG324      NG3P2       HGP2
   61    31    32    35	 9 ;       HGA2      CG324      NG3P2      CG324
   61    31    32    33	 9 ;       HGA2      CG324      NG3P2       HGP2
   62    31    32    34	 9 ;       HGA2      CG324      NG3P2       HGP2
   62    31    32    35	 9 ;       HGA2      CG324      NG3P2      CG324
   62    31    32    33	 9 ;       HGA2      CG324      NG3P2       HGP2
   34    32    35    36	 9 ;       HGP2      NG3P2      CG324     CG2R61
   34    32    35    63	 9 ;       HGP2      NG3P2      CG324       HGA2
   34    32    35    64	 9 ;       HGP2      NG3P2      CG324       HGA2
   31    32    35    36	 9 ;      CG324      NG3P2      CG324     CG2R61
   31    32    35    63	 9 ;      CG324      NG3P2      CG324       HGA2
   31    32    35    64	 9 ;      CG324      NG3P2      CG324       HGA2
   33    32    35    36	 9 ;       HGP2      NG3P2      CG324     CG2R61
   33    32    35    63	 9 ;       HGP2      NG3P2      CG324       HGA2
   33    32    35    64	 9 ;       HGP2      NG3P2      CG324       HGA2
   32    35    36    37	 9 ;      NG3P2      CG324     CG2R61     CG2R61
   32    35    36    41	 9 ;      NG3P2      CG324     CG2R61     CG2R61
   63    35    36    37	 9 ;       HGA2      CG324     CG2R61     CG2R61
   63    35    36    41	 9 ;       HGA2      CG324     CG2R61     CG2R61
   64    35    36    37	 9 ;       HGA2      CG324     CG2R61     CG2R61
   64    35    36    41	 9 ;       HGA2      CG324     CG2R61     CG2R61
   35    36    37    38	 9 ;      CG324     CG2R61     CG2R61     CG2R61
   35    36    37    65	 9 ;      CG324     CG2R61     CG2R61      HGR61
   41    36    37    38	 9 ;     CG2R61     CG2R61     CG2R61     CG2R61
   41    36    37    65	 9 ;     CG2R61     CG2R61     CG2R61      HGR61
   35    36    41    40	 9 ;      CG324     CG2R61     CG2R61     CG2R61
   35    36    41    68	 9 ;      CG324     CG2R61     CG2R61      HGR61
   37    36    41    40	 9 ;     CG2R61     CG2R61     CG2R61     CG2R61
   37    36    41    68	 9 ;     CG2R61     CG2R61     CG2R61      HGR61
   36    37    38    42	 9 ;     CG2R61     CG2R61     CG2R61      OG301
   36    37    38    39	 9 ;     CG2R61     CG2R61     CG2R61     CG2R61
   65    37    38    42	 9 ;      HGR61     CG2R61     CG2R61      OG301
   65    37    38    39	 9 ;      HGR61     CG2R61     CG2R61     CG2R61
   37    38    42    43	 9 ;     CG2R61     CG2R61      OG301      CG331
   39    38    42    43	 9 ;     CG2R61     CG2R61      OG301      CG331
   37    38    39    40	 9 ;     CG2R61     CG2R61     CG2R61     CG2R61
   37    38    39    66	 9 ;     CG2R61     CG2R61     CG2R61      HGR61
   42    38    39    40	 9 ;      OG301     CG2R61     CG2R61     CG2R61
   42    38    39    66	 9 ;      OG301     CG2R61     CG2R61      HGR61
   38    39    40    41	 9 ;     CG2R61     CG2R61     CG2R61     CG2R61
   38    39    40    67	 9 ;     CG2R61     CG2R61     CG2R61      HGR61
   66    39    40    41	 9 ;      HGR61     CG2R61     CG2R61     CG2R61
   66    39    40    67	 9 ;      HGR61     CG2R61     CG2R61      HGR61
   39    40    41    36	 9 ;     CG2R61     CG2R61     CG2R61     CG2R61
   39    40    41    68	 9 ;     CG2R61     CG2R61     CG2R61      HGR61
   67    40    41    36	 9 ;      HGR61     CG2R61     CG2R61     CG2R61
   67    40    41    68	 9 ;      HGR61     CG2R61     CG2R61      HGR61
   38    42    43    75	 9 ;     CG2R61      OG301      CG331       HGA3
   38    42    43    76	 9 ;     CG2R61      OG301      CG331       HGA3
   38    42    43    77	 9 ;     CG2R61      OG301      CG331       HGA3
    8    46    47    48	 9 ;      NG2S0      CG321      CG321      CG321
    8    46    47    71	 9 ;      NG2S0      CG321      CG321       HGA2
    8    46    47    72	 9 ;      NG2S0      CG321      CG321       HGA2
   69    46    47    48	 9 ;       HGA2      CG321      CG321      CG321
   69    46    47    71	 9 ;       HGA2      CG321      CG321       HGA2
   69    46    47    72	 9 ;       HGA2      CG321      CG321       HGA2
   70    46    47    48	 9 ;       HGA2      CG321      CG321      CG321
   70    46    47    71	 9 ;       HGA2      CG321      CG321       HGA2
   70    46    47    72	 9 ;       HGA2      CG321      CG321       HGA2
   46    47    48    49	 9 ;      CG321      CG321      CG321      CG331
   46    47    48    73	 9 ;      CG321      CG321      CG321       HGA2
   46    47    48    74	 9 ;      CG321      CG321      CG321       HGA2
   71    47    48    49	 9 ;       HGA2      CG321      CG321      CG331
   71    47    48    73	 9 ;       HGA2      CG321      CG321       HGA2
   71    47    48    74	 9 ;       HGA2      CG321      CG321       HGA2
   72    47    48    49	 9 ;       HGA2      CG321      CG321      CG331
   72    47    48    73	 9 ;       HGA2      CG321      CG321       HGA2
   72    47    48    74	 9 ;       HGA2      CG321      CG321       HGA2
   47    48    49    81	 9 ;      CG321      CG321      CG331       HGA3
   47    48    49    82	 9 ;      CG321      CG321      CG331       HGA3
   47    48    49    83	 9 ;      CG321      CG321      CG331       HGA3
   73    48    49    81	 9 ;       HGA2      CG321      CG331       HGA3
   73    48    49    82	 9 ;       HGA2      CG321      CG331       HGA3
   73    48    49    83	 9 ;       HGA2      CG321      CG331       HGA3
   74    48    49    81	 9 ;       HGA2      CG321      CG331       HGA3
   74    48    49    82	 9 ;       HGA2      CG321      CG331       HGA3
   74    48    49    83	 9 ;       HGA2      CG321      CG331       HGA3

[ dihedrals ]
;	ai	  aj	ak	  al funct			  c0			c1			  c2			c3
    6     4     8     7	 2
   16     1    17    19	 2

