GROwing Monsters And Cloning Shrimps
   83
    1LIG     C1    1  -1.631   0.448  -1.560
    1LIG     C2    2  -1.711   0.526  -1.651
    1LIG     C3    3  -1.821   0.578  -1.580
    1LIG     N1    4  -1.824   0.515  -1.455
    1LIG     C4    5  -1.704   0.445  -1.442
    1LIG     C5    6  -1.917   0.537  -1.350
    1LIG     O1    7  -1.872   0.572  -1.242
    1LIG     N2    8  -2.052   0.515  -1.382
    1LIG     C6    9  -2.096   0.435  -1.496
    1LIG     C7   10  -1.901   0.681  -1.633
    1LIG     C8   11  -1.874   0.728  -1.762
    1LIG     C9   12  -1.776   0.666  -1.840
    1LIG    C10   13  -1.696   0.564  -1.787
    1LIG    C11   14  -1.943   0.843  -1.813
    1LIG     N3   15  -1.995   0.939  -1.852
    1LIG    C12   16  -1.497   0.388  -1.575
    1LIG     N4   17  -1.398   0.445  -1.497
    1LIG     H1   18  -1.426   0.520  -1.435
    1LIG     O2   19  -1.474   0.288  -1.641
    1LIG    C13   20  -1.258   0.398  -1.483
    1LIG    C14   21  -1.217   0.353  -1.340
    1LIG    C15   22  -1.220   0.206  -1.314
    1LIG    C16   23  -1.324   0.126  -1.362
    1LIG    C17   24  -1.319  -0.012  -1.343
    1LIG     F1   25  -1.417  -0.089  -1.391
    1LIG    C18   26  -1.213  -0.071  -1.275
    1LIG    C19   27  -1.110   0.010  -1.228
    1LIG    C20   28  -1.112   0.147  -1.246
    1LIG     F2   29  -1.006  -0.046  -1.164
    1LIG    C21   30  -1.154   0.504  -1.529
    1LIG    C22   31  -1.159   0.528  -1.681
    1LIG     N5   32  -1.209   0.665  -1.710
    1LIG     H2   33  -1.229   0.715  -1.622
    1LIG     H3   34  -1.133   0.719  -1.754
    1LIG    C23   35  -1.331   0.675  -1.796
    1LIG    C24   36  -1.419   0.783  -1.741
    1LIG    C25   37  -1.475   0.879  -1.825
    1LIG    C26   38  -1.576   0.963  -1.779
    1LIG    C27   39  -1.619   0.952  -1.646
    1LIG    C28   40  -1.560   0.860  -1.560
    1LIG    C29   41  -1.461   0.775  -1.606
    1LIG     O3   42  -1.645   1.053  -1.855
    1LIG    C30   43  -1.659   1.023  -1.993
    1LIG     O4   44  -1.175   0.631  -1.467
    1LIG     H4   45  -1.108   0.693  -1.505
    1LIG    C31   46  -2.154   0.550  -1.282
    1LIG    C32   47  -2.248   0.435  -1.242
    1LIG    C33   48  -2.183   0.333  -1.148
    1LIG    C34   49  -2.244   0.194  -1.161
    1LIG     HC   50  -1.672   0.396  -1.351
    1LIG    HC1   51  -1.982   0.723  -1.575
    1LIG    HC2   52  -1.762   0.698  -1.942
    1LIG    HC3   53  -1.623   0.515  -1.849
    1LIG    HC4   54  -1.246   0.312  -1.548
    1LIG    HC5   55  -1.285   0.401  -1.270
    1LIG    HC6   56  -1.117   0.390  -1.320
    1LIG    HC7   57  -1.407   0.170  -1.414
    1LIG    HC8   58  -1.210  -0.178  -1.260
    1LIG    HC9   59  -1.032   0.208  -1.208
    1LIG   HC10   60  -1.054   0.469  -1.503
    1LIG   HC11   61  -1.059   0.517  -1.723
    1LIG   HC12   62  -1.225   0.455  -1.728
    1LIG   HC13   63  -1.385   0.580  -1.796
    1LIG   HC14   64  -1.303   0.700  -1.898
    1LIG   HC15   65  -1.439   0.889  -1.927
    1LIG   HC16   66  -1.699   1.015  -1.611
    1LIG   HC17   67  -1.592   0.854  -1.457
    1LIG   HC18   68  -1.415   0.703  -1.540
    1LIG   HC19   69  -2.104   0.586  -1.192
    1LIG   HC20   70  -2.215   0.631  -1.322
    1LIG   HC21   71  -2.280   0.383  -1.332
    1LIG   HC22   72  -2.336   0.477  -1.193
    1LIG   HC23   73  -2.077   0.327  -1.171
    1LIG   HC24   74  -2.195   0.368  -1.045
    1LIG   HC25   75  -1.734   1.089  -2.037
    1LIG   HC26   76  -1.691   0.919  -2.005
    1LIG   HC27   77  -1.564   1.038  -2.043
    1LIG   HC28   78  -2.027   0.449  -1.579
    1LIG   HC29   79  -2.196   0.468  -1.526
    1LIG   HC30   80  -2.099   0.330  -1.468
    1LIG   HC31   81  -2.194   0.126  -1.092
    1LIG   HC32   82  -2.350   0.199  -1.138
    1LIG   HC33   83  -2.231   0.159  -1.264
   0.00000   0.00000   0.00000
