; Created by cgenff_charmm2gmx.py

[ moleculetype ]
; Name			   nrexcl
LIG				 3

[ atoms ]
;	 nr		  type	resnr residue  atom   cgnr	   charge		mass  typeB    chargeB		massB
; residue	 1 LIG rtp LIG q	qsum
     1      CG311      1    LIG     C1      1     -0.027     12.011   ;
     2      NG2S1      1    LIG     N1      2     -0.338     14.007   ;
     3      CG2O1      1    LIG     C2      3      0.286     12.011   ;
     4      OG2D1      1    LIG     O1      4     -0.532     15.999   ;
     5       HGP1      1    LIG     H1      5      0.232      1.008   ;
     6     CG2DC1      1    LIG     C3      6      0.405     12.011   ;
     7     CG2DC1      1    LIG     C4      7     -0.348     12.011   ;
     8      CG311      1    LIG     C5      8      0.719     12.011   ;
     9      NG311      1    LIG     N2      9     -0.619     14.007   ;
    10     CG2D2O      1    LIG     C6     10      0.396     12.011   ;
    11     HGPAM1      1    LIG     HN     11      0.375      1.008   ;
    12     CG2DC2      1    LIG     C7     12     -0.542     12.011   ;
    13      NG301      1    LIG     N3     13     -0.655     14.007   ;
    14      CG331      1    LIG     C8     14     -0.044     12.011   ;
    15      CG321      1    LIG     C9     15      0.065     12.011   ;
    16     CG3C31      1    LIG    C10     16     -0.239     12.011   ;
    17     CG3C31      1    LIG    C11     17     -0.184     12.011   ;
    18     CG3C31      1    LIG    C12     18     -0.087     12.011   ;
    19      CG331      1    LIG    C13     19     -0.275     12.011   ;
    20      NG301      1    LIG     N4     20     -0.249     14.007   ;
    21      CG331      1    LIG    C14     21     -0.096     12.011   ;
    22      SG3O2      1    LIG      S     22      0.407     32.060   ;
    23      OG2P1      1    LIG     O2     23     -0.387     15.999   ;
    24      OG2P1      1    LIG     O3     24     -0.387     15.999   ;
    25      CG331      1    LIG    C15     25      0.036     12.011   ;
    26      CG311      1    LIG    C16     26      0.124     12.011   ;
    27      OG311      1    LIG     O4     27     -0.648     15.999   ;
    28       HGP1      1    LIG     H2     28      0.421      1.008   ;
    29      CG321      1    LIG    C17     29     -0.131     12.011   ;
    30      CG311      1    LIG    C18     30      0.097     12.011   ;
    31      OG301      1    LIG     O5     31     -0.392     15.999   ;
    32      CG331      1    LIG    C19     32     -0.091     12.011   ;
    33      CG321      1    LIG    C20     33     -0.019     12.011   ;
    34      OG301      1    LIG     O6     34     -0.389     15.999   ;
    35      CG321      1    LIG    C21     35      0.063     12.011   ;
    36     CG2R61      1    LIG    C22     36     -0.008     12.011   ;
    37     CG2R61      1    LIG    C23     37     -0.120     12.011   ;
    38     CG2R61      1    LIG    C24     38     -0.117     12.011   ;
    39     CG2R61      1    LIG    C25     39      0.211     12.011   ;
    40     CG2R61      1    LIG    C26     40     -0.117     12.011   ;
    41     CG2R61      1    LIG    C27     41     -0.120     12.011   ;
    42      OG301      1    LIG     O7     42     -0.383     15.999   ;
    43      CG331      1    LIG    C28     43     -0.094     12.011   ;
    44      CG321      1    LIG    C29     44      0.009     12.011   ;
    45      OG301      1    LIG     O8     45     -0.177     15.999   ;
    46     CG2R61      1    LIG    C30     46      0.384     12.011   ;
    47     CG2R61      1    LIG    C31     47     -0.410     12.011   ;
    48     CG2R66      1    LIG    C32     48      0.283     12.011   ;
    49       FGR1      1    LIG     F1     49     -0.210     18.998   ;
    50     CG2R61      1    LIG    C33     50     -0.240     12.011   ;
    51     CG2R66      1    LIG    C34     51      0.283     12.011   ;
    52       FGR1      1    LIG     F2     52     -0.210     18.998   ;
    53     CG2R61      1    LIG    C35     53     -0.410     12.011   ;
    54       HGA1      1    LIG     HC     54      0.090      1.008   ;
    55       HGA4      1    LIG    HC1     55      0.127      1.008   ;
    56       HGA4      1    LIG    HC2     56      0.124      1.008   ;
    57       HGA3      1    LIG    HC3     57      0.090      1.008   ;
    58       HGA3      1    LIG    HC4     58      0.090      1.008   ;
    59       HGA3      1    LIG    HC5     59      0.090      1.008   ;
    60       HGA2      1    LIG    HC6     60      0.090      1.008   ;
    61       HGA2      1    LIG    HC7     61      0.090      1.008   ;
    62       HGA1      1    LIG    HC8     62      0.090      1.008   ;
    63       HGA2      1    LIG    HC9     63      0.090      1.008   ;
    64       HGA2      1    LIG   HC10     64      0.090      1.008   ;
    65       HGA1      1    LIG   HC11     65      0.090      1.008   ;
    66       HGA3      1    LIG   HC12     66      0.090      1.008   ;
    67       HGA3      1    LIG   HC13     67      0.090      1.008   ;
    68       HGA3      1    LIG   HC14     68      0.090      1.008   ;
    69       HGA3      1    LIG   HC15     69      0.090      1.008   ;
    70       HGA3      1    LIG   HC16     70      0.090      1.008   ;
    71       HGA3      1    LIG   HC17     71      0.090      1.008   ;
    72       HGA3      1    LIG   HC18     72      0.090      1.008   ;
    73       HGA3      1    LIG   HC19     73      0.090      1.008   ;
    74       HGA3      1    LIG   HC20     74      0.090      1.008   ;
    75       HGA1      1    LIG   HC21     75      0.090      1.008   ;
    76       HGA2      1    LIG   HC22     76      0.090      1.008   ;
    77       HGA2      1    LIG   HC23     77      0.090      1.008   ;
    78       HGA1      1    LIG   HC24     78      0.090      1.008   ;
    79       HGA3      1    LIG   HC25     79      0.090      1.008   ;
    80       HGA3      1    LIG   HC26     80      0.090      1.008   ;
    81       HGA3      1    LIG   HC27     81      0.090      1.008   ;
    82       HGA2      1    LIG   HC28     82      0.090      1.008   ;
    83       HGA2      1    LIG   HC29     83      0.090      1.008   ;
    84       HGA2      1    LIG   HC30     84      0.090      1.008   ;
    85       HGA2      1    LIG   HC31     85      0.090      1.008   ;
    86      HGR61      1    LIG   HC32     86      0.116      1.008   ;
    87      HGR61      1    LIG   HC33     87      0.116      1.008   ;
    88      HGR61      1    LIG   HC34     88      0.116      1.008   ;
    89      HGR61      1    LIG   HC35     89      0.116      1.008   ;
    90       HGA3      1    LIG   HC36     90      0.090      1.008   ;
    91       HGA3      1    LIG   HC37     91      0.090      1.008   ;
    92       HGA3      1    LIG   HC38     92      0.090      1.008   ;
    93       HGA2      1    LIG   HC39     93      0.090      1.008   ;
    94       HGA2      1    LIG   HC40     94      0.090      1.008   ;
    95      HGR62      1    LIG   HC41     95      0.179      1.008   ;
    96      HGR62      1    LIG   HC42     96      0.186      1.008   ;
    97      HGR62      1    LIG   HC43     97      0.179      1.008   ;
    98       HGA1      1    LIG    H48     98      0.090      1.008   ;

[ bonds ]
;	ai	  aj funct			  c0			c1			  c2			c3
    1    26	 1 ;       CG311      CG311
    1    44	 1 ;       CG311      CG321
    1     2	 1 ;       CG311      NG2S1
    1    54	 1 ;       CG311       HGA1
    2     5	 1 ;       NG2S1       HGP1
    2     3	 1 ;       NG2S1      CG2O1
    3     4	 1 ;       CG2O1      OG2D1
    3     6	 1 ;       CG2O1     CG2DC1
    6     7	 1 ;      CG2DC1     CG2DC1
    6    12	 1 ;      CG2DC1     CG2DC2
    7     8	 1 ;      CG2DC1      CG311
    7    55	 1 ;      CG2DC1       HGA4
    8    13	 1 ;       CG311      NG301
    8     9	 1 ;       CG311      NG311
    8    98	 1 ;       CG311       HGA1
    9    10	 1 ;       NG311     CG2D2O
    9    11	 1 ;       NG311     HGPAM1
   10    12	 1 ;      CG2D2O     CG2DC2
   10    20	 1 ;      CG2D2O      NG301
   12    56	 1 ;      CG2DC2       HGA4
   13    15	 1 ;       NG301      CG321
   13    14	 1 ;       NG301      CG331
   14    57	 1 ;       CG331       HGA3
   14    58	 1 ;       CG331       HGA3
   14    59	 1 ;       CG331       HGA3
   15    16	 1 ;       CG321     CG3C31
   15    60	 1 ;       CG321       HGA2
   15    61	 1 ;       CG321       HGA2
   16    18	 1 ;      CG3C31     CG3C31
   16    17	 1 ;      CG3C31     CG3C31
   16    62	 1 ;      CG3C31       HGA1
   17    18	 1 ;      CG3C31     CG3C31
   17    63	 1 ;      CG3C31       HGA2
   17    64	 1 ;      CG3C31       HGA2
   18    19	 1 ;      CG3C31      CG331
   18    65	 1 ;      CG3C31       HGA1
   19    66	 1 ;       CG331       HGA3
   19    67	 1 ;       CG331       HGA3
   19    68	 1 ;       CG331       HGA3
   20    21	 1 ;       NG301      CG331
   20    22	 1 ;       NG301      SG3O2
   21    69	 1 ;       CG331       HGA3
   21    70	 1 ;       CG331       HGA3
   21    71	 1 ;       CG331       HGA3
   22    23	 1 ;       SG3O2      OG2P1
   22    24	 1 ;       SG3O2      OG2P1
   22    25	 1 ;       SG3O2      CG331
   25    72	 1 ;       CG331       HGA3
   25    73	 1 ;       CG331       HGA3
   25    74	 1 ;       CG331       HGA3
   26    29	 1 ;       CG311      CG321
   26    27	 1 ;       CG311      OG311
   26    75	 1 ;       CG311       HGA1
   27    28	 1 ;       OG311       HGP1
   29    30	 1 ;       CG321      CG311
   29    76	 1 ;       CG321       HGA2
   29    77	 1 ;       CG321       HGA2
   30    33	 1 ;       CG311      CG321
   30    31	 1 ;       CG311      OG301
   30    78	 1 ;       CG311       HGA1
   31    32	 1 ;       OG301      CG331
   32    79	 1 ;       CG331       HGA3
   32    80	 1 ;       CG331       HGA3
   32    81	 1 ;       CG331       HGA3
   33    34	 1 ;       CG321      OG301
   33    82	 1 ;       CG321       HGA2
   33    83	 1 ;       CG321       HGA2
   34    35	 1 ;       OG301      CG321
   35    36	 1 ;       CG321     CG2R61
   35    84	 1 ;       CG321       HGA2
   35    85	 1 ;       CG321       HGA2
   36    41	 1 ;      CG2R61     CG2R61
   36    37	 1 ;      CG2R61     CG2R61
   37    38	 1 ;      CG2R61     CG2R61
   37    86	 1 ;      CG2R61      HGR61
   38    39	 1 ;      CG2R61     CG2R61
   38    87	 1 ;      CG2R61      HGR61
   39    40	 1 ;      CG2R61     CG2R61
   39    42	 1 ;      CG2R61      OG301
   40    41	 1 ;      CG2R61     CG2R61
   40    88	 1 ;      CG2R61      HGR61
   41    89	 1 ;      CG2R61      HGR61
   42    43	 1 ;       OG301      CG331
   43    90	 1 ;       CG331       HGA3
   43    91	 1 ;       CG331       HGA3
   43    92	 1 ;       CG331       HGA3
   44    45	 1 ;       CG321      OG301
   44    93	 1 ;       CG321       HGA2
   44    94	 1 ;       CG321       HGA2
   45    46	 1 ;       OG301     CG2R61
   46    53	 1 ;      CG2R61     CG2R61
   46    47	 1 ;      CG2R61     CG2R61
   47    48	 1 ;      CG2R61     CG2R66
   47    95	 1 ;      CG2R61      HGR62
   48    50	 1 ;      CG2R66     CG2R61
   48    49	 1 ;      CG2R66       FGR1
   50    51	 1 ;      CG2R61     CG2R66
   50    96	 1 ;      CG2R61      HGR62
   51    53	 1 ;      CG2R66     CG2R61
   51    52	 1 ;      CG2R66       FGR1
   53    97	 1 ;      CG2R61      HGR62

[ pairs ]
;	ai	  aj funct			  c0			c1			  c2			c3
    1     4	 1
    1     6	 1
    1    30	 1
    1    76	 1
    1    77	 1
    1    28	 1
    1    46	 1
    2    29	 1
    2    27	 1
    2    75	 1
    2    45	 1
    2    93	 1
    2    94	 1
    2     7	 1
    2    12	 1
    3    26	 1
    3    44	 1
    3    54	 1
    3     8	 1
    3    55	 1
    3    10	 1
    3    56	 1
    4     5	 1
    4     7	 1
    4    12	 1
    5    26	 1
    5    44	 1
    5    54	 1
    5     6	 1
    6    13	 1
    6     9	 1
    6    98	 1
    6    20	 1
    7    10	 1
    7    56	 1
    7    15	 1
    7    14	 1
    7    11	 1
    8    12	 1
    8    20	 1
    8    16	 1
    8    60	 1
    8    61	 1
    8    57	 1
    8    58	 1
    8    59	 1
    9    55	 1
    9    15	 1
    9    14	 1
    9    56	 1
    9    21	 1
    9    22	 1
   10    13	 1
   10    98	 1
   10    69	 1
   10    70	 1
   10    71	 1
   10    23	 1
   10    24	 1
   10    25	 1
   11    13	 1
   11    98	 1
   11    12	 1
   11    20	 1
   12    55	 1
   12    21	 1
   12    22	 1
   13    55	 1
   13    18	 1
   13    17	 1
   13    62	 1
   14    98	 1
   14    16	 1
   14    60	 1
   14    61	 1
   15    98	 1
   15    57	 1
   15    58	 1
   15    59	 1
   15    19	 1
   15    65	 1
   15    63	 1
   15    64	 1
   16    66	 1
   16    67	 1
   16    68	 1
   17    60	 1
   17    61	 1
   17    66	 1
   17    67	 1
   17    68	 1
   18    60	 1
   18    61	 1
   19    62	 1
   19    63	 1
   19    64	 1
   20    56	 1
   20    72	 1
   20    73	 1
   20    74	 1
   21    23	 1
   21    24	 1
   21    25	 1
   22    69	 1
   22    70	 1
   22    71	 1
   23    72	 1
   23    73	 1
   23    74	 1
   24    72	 1
   24    73	 1
   24    74	 1
   26    45	 1
   26    93	 1
   26    94	 1
   26    33	 1
   26    31	 1
   26    78	 1
   27    44	 1
   27    54	 1
   27    30	 1
   27    76	 1
   27    77	 1
   28    29	 1
   28    75	 1
   29    44	 1
   29    54	 1
   29    34	 1
   29    82	 1
   29    83	 1
   29    32	 1
   30    75	 1
   30    79	 1
   30    80	 1
   30    81	 1
   30    35	 1
   31    76	 1
   31    77	 1
   31    34	 1
   31    82	 1
   31    83	 1
   32    33	 1
   32    78	 1
   33    76	 1
   33    77	 1
   33    36	 1
   33    84	 1
   33    85	 1
   34    78	 1
   34    41	 1
   34    37	 1
   35    82	 1
   35    83	 1
   35    40	 1
   35    89	 1
   35    38	 1
   35    86	 1
   36    39	 1
   36    87	 1
   36    88	 1
   37    84	 1
   37    85	 1
   37    40	 1
   37    89	 1
   37    42	 1
   38    41	 1
   38    88	 1
   38    43	 1
   39    86	 1
   39    89	 1
   39    90	 1
   39    91	 1
   39    92	 1
   40    87	 1
   40    43	 1
   41    84	 1
   41    85	 1
   41    86	 1
   41    42	 1
   42    87	 1
   42    88	 1
   44    75	 1
   44    53	 1
   44    47	 1
   45    54	 1
   45    51	 1
   45    97	 1
   45    48	 1
   45    95	 1
   46    93	 1
   46    94	 1
   46    50	 1
   46    49	 1
   46    52	 1
   47    51	 1
   47    97	 1
   47    96	 1
   48    53	 1
   48    52	 1
   49    95	 1
   49    51	 1
   49    96	 1
   50    95	 1
   50    97	 1
   52    96	 1
   52    97	 1
   53    95	 1
   53    96	 1
   54    75	 1
   54    93	 1
   54    94	 1
   55    98	 1
   60    62	 1
   61    62	 1
   62    65	 1
   62    63	 1
   62    64	 1
   63    65	 1
   64    65	 1
   65    66	 1
   65    67	 1
   65    68	 1
   75    76	 1
   75    77	 1
   76    78	 1
   77    78	 1
   78    82	 1
   78    83	 1
   86    87	 1
   88    89	 1

[ angles ]
;	ai	  aj	ak funct			c0			  c1			c2			  c3
   26     1    44	5 ;      CG311      CG311      CG321
   26     1     2	5 ;      CG311      CG311      NG2S1
   26     1    54	5 ;      CG311      CG311       HGA1
   44     1     2	5 ;      CG321      CG311      NG2S1
   44     1    54	5 ;      CG321      CG311       HGA1
    2     1    54	5 ;      NG2S1      CG311       HGA1
    1     2     5	5 ;      CG311      NG2S1       HGP1
    1     2     3	5 ;      CG311      NG2S1      CG2O1
    5     2     3	5 ;       HGP1      NG2S1      CG2O1
    2     3     4	5 ;      NG2S1      CG2O1      OG2D1
    2     3     6	5 ;      NG2S1      CG2O1     CG2DC1
    4     3     6	5 ;      OG2D1      CG2O1     CG2DC1
    3     6     7	5 ;      CG2O1     CG2DC1     CG2DC1
    3     6    12	5 ;      CG2O1     CG2DC1     CG2DC2
    7     6    12	5 ;     CG2DC1     CG2DC1     CG2DC2
    6     7     8	5 ;     CG2DC1     CG2DC1      CG311
    6     7    55	5 ;     CG2DC1     CG2DC1       HGA4
    8     7    55	5 ;      CG311     CG2DC1       HGA4
    7     8    13	5 ;     CG2DC1      CG311      NG301
    7     8     9	5 ;     CG2DC1      CG311      NG311
    7     8    98	5 ;     CG2DC1      CG311       HGA1
   13     8     9	5 ;      NG301      CG311      NG311
   13     8    98	5 ;      NG301      CG311       HGA1
    9     8    98	5 ;      NG311      CG311       HGA1
    8     9    10	5 ;      CG311      NG311     CG2D2O
    8     9    11	5 ;      CG311      NG311     HGPAM1
   10     9    11	5 ;     CG2D2O      NG311     HGPAM1
   12    10     9	5 ;     CG2DC2     CG2D2O      NG311
   12    10    20	5 ;     CG2DC2     CG2D2O      NG301
    9    10    20	5 ;      NG311     CG2D2O      NG301
    6    12    10	5 ;     CG2DC1     CG2DC2     CG2D2O
    6    12    56	5 ;     CG2DC1     CG2DC2       HGA4
   10    12    56	5 ;     CG2D2O     CG2DC2       HGA4
   15    13     8	5 ;      CG321      NG301      CG311
   15    13    14	5 ;      CG321      NG301      CG331
    8    13    14	5 ;      CG311      NG301      CG331
   13    14    57	5 ;      NG301      CG331       HGA3
   13    14    58	5 ;      NG301      CG331       HGA3
   13    14    59	5 ;      NG301      CG331       HGA3
   57    14    58	5 ;       HGA3      CG331       HGA3
   57    14    59	5 ;       HGA3      CG331       HGA3
   58    14    59	5 ;       HGA3      CG331       HGA3
   16    15    13	5 ;     CG3C31      CG321      NG301
   16    15    60	5 ;     CG3C31      CG321       HGA2
   16    15    61	5 ;     CG3C31      CG321       HGA2
   13    15    60	5 ;      NG301      CG321       HGA2
   13    15    61	5 ;      NG301      CG321       HGA2
   60    15    61	5 ;       HGA2      CG321       HGA2
   18    16    17	5 ;     CG3C31     CG3C31     CG3C31
   18    16    15	5 ;     CG3C31     CG3C31      CG321
   18    16    62	5 ;     CG3C31     CG3C31       HGA1
   17    16    15	5 ;     CG3C31     CG3C31      CG321
   17    16    62	5 ;     CG3C31     CG3C31       HGA1
   15    16    62	5 ;      CG321     CG3C31       HGA1
   18    17    16	5 ;     CG3C31     CG3C31     CG3C31
   18    17    63	5 ;     CG3C31     CG3C31       HGA2
   18    17    64	5 ;     CG3C31     CG3C31       HGA2
   16    17    63	5 ;     CG3C31     CG3C31       HGA2
   16    17    64	5 ;     CG3C31     CG3C31       HGA2
   63    17    64	5 ;       HGA2     CG3C31       HGA2
   19    18    17	5 ;      CG331     CG3C31     CG3C31
   19    18    16	5 ;      CG331     CG3C31     CG3C31
   19    18    65	5 ;      CG331     CG3C31       HGA1
   17    18    16	5 ;     CG3C31     CG3C31     CG3C31
   17    18    65	5 ;     CG3C31     CG3C31       HGA1
   16    18    65	5 ;     CG3C31     CG3C31       HGA1
   18    19    66	5 ;     CG3C31      CG331       HGA3
   18    19    67	5 ;     CG3C31      CG331       HGA3
   18    19    68	5 ;     CG3C31      CG331       HGA3
   66    19    67	5 ;       HGA3      CG331       HGA3
   66    19    68	5 ;       HGA3      CG331       HGA3
   67    19    68	5 ;       HGA3      CG331       HGA3
   10    20    21	5 ;     CG2D2O      NG301      CG331
   10    20    22	5 ;     CG2D2O      NG301      SG3O2
   21    20    22	5 ;      CG331      NG301      SG3O2
   20    21    69	5 ;      NG301      CG331       HGA3
   20    21    70	5 ;      NG301      CG331       HGA3
   20    21    71	5 ;      NG301      CG331       HGA3
   69    21    70	5 ;       HGA3      CG331       HGA3
   69    21    71	5 ;       HGA3      CG331       HGA3
   70    21    71	5 ;       HGA3      CG331       HGA3
   20    22    23	5 ;      NG301      SG3O2      OG2P1
   20    22    24	5 ;      NG301      SG3O2      OG2P1
   20    22    25	5 ;      NG301      SG3O2      CG331
   23    22    24	5 ;      OG2P1      SG3O2      OG2P1
   23    22    25	5 ;      OG2P1      SG3O2      CG331
   24    22    25	5 ;      OG2P1      SG3O2      CG331
   22    25    72	5 ;      SG3O2      CG331       HGA3
   22    25    73	5 ;      SG3O2      CG331       HGA3
   22    25    74	5 ;      SG3O2      CG331       HGA3
   72    25    73	5 ;       HGA3      CG331       HGA3
   72    25    74	5 ;       HGA3      CG331       HGA3
   73    25    74	5 ;       HGA3      CG331       HGA3
   29    26     1	5 ;      CG321      CG311      CG311
   29    26    27	5 ;      CG321      CG311      OG311
   29    26    75	5 ;      CG321      CG311       HGA1
    1    26    27	5 ;      CG311      CG311      OG311
    1    26    75	5 ;      CG311      CG311       HGA1
   27    26    75	5 ;      OG311      CG311       HGA1
   26    27    28	5 ;      CG311      OG311       HGP1
   30    29    26	5 ;      CG311      CG321      CG311
   30    29    76	5 ;      CG311      CG321       HGA2
   30    29    77	5 ;      CG311      CG321       HGA2
   26    29    76	5 ;      CG311      CG321       HGA2
   26    29    77	5 ;      CG311      CG321       HGA2
   76    29    77	5 ;       HGA2      CG321       HGA2
   33    30    31	5 ;      CG321      CG311      OG301
   33    30    29	5 ;      CG321      CG311      CG321
   33    30    78	5 ;      CG321      CG311       HGA1
   31    30    29	5 ;      OG301      CG311      CG321
   31    30    78	5 ;      OG301      CG311       HGA1
   29    30    78	5 ;      CG321      CG311       HGA1
   32    31    30	5 ;      CG331      OG301      CG311
   31    32    79	5 ;      OG301      CG331       HGA3
   31    32    80	5 ;      OG301      CG331       HGA3
   31    32    81	5 ;      OG301      CG331       HGA3
   79    32    80	5 ;       HGA3      CG331       HGA3
   79    32    81	5 ;       HGA3      CG331       HGA3
   80    32    81	5 ;       HGA3      CG331       HGA3
   34    33    30	5 ;      OG301      CG321      CG311
   34    33    82	5 ;      OG301      CG321       HGA2
   34    33    83	5 ;      OG301      CG321       HGA2
   30    33    82	5 ;      CG311      CG321       HGA2
   30    33    83	5 ;      CG311      CG321       HGA2
   82    33    83	5 ;       HGA2      CG321       HGA2
   33    34    35	5 ;      CG321      OG301      CG321
   34    35    36	5 ;      OG301      CG321     CG2R61
   34    35    84	5 ;      OG301      CG321       HGA2
   34    35    85	5 ;      OG301      CG321       HGA2
   36    35    84	5 ;     CG2R61      CG321       HGA2
   36    35    85	5 ;     CG2R61      CG321       HGA2
   84    35    85	5 ;       HGA2      CG321       HGA2
   35    36    41	5 ;      CG321     CG2R61     CG2R61
   35    36    37	5 ;      CG321     CG2R61     CG2R61
   41    36    37	5 ;     CG2R61     CG2R61     CG2R61
   36    37    38	5 ;     CG2R61     CG2R61     CG2R61
   36    37    86	5 ;     CG2R61     CG2R61      HGR61
   38    37    86	5 ;     CG2R61     CG2R61      HGR61
   37    38    39	5 ;     CG2R61     CG2R61     CG2R61
   37    38    87	5 ;     CG2R61     CG2R61      HGR61
   39    38    87	5 ;     CG2R61     CG2R61      HGR61
   40    39    38	5 ;     CG2R61     CG2R61     CG2R61
   40    39    42	5 ;     CG2R61     CG2R61      OG301
   38    39    42	5 ;     CG2R61     CG2R61      OG301
   41    40    39	5 ;     CG2R61     CG2R61     CG2R61
   41    40    88	5 ;     CG2R61     CG2R61      HGR61
   39    40    88	5 ;     CG2R61     CG2R61      HGR61
   36    41    40	5 ;     CG2R61     CG2R61     CG2R61
   36    41    89	5 ;     CG2R61     CG2R61      HGR61
   40    41    89	5 ;     CG2R61     CG2R61      HGR61
   39    42    43	5 ;     CG2R61      OG301      CG331
   42    43    90	5 ;      OG301      CG331       HGA3
   42    43    91	5 ;      OG301      CG331       HGA3
   42    43    92	5 ;      OG301      CG331       HGA3
   90    43    91	5 ;       HGA3      CG331       HGA3
   90    43    92	5 ;       HGA3      CG331       HGA3
   91    43    92	5 ;       HGA3      CG331       HGA3
   45    44     1	5 ;      OG301      CG321      CG311
   45    44    93	5 ;      OG301      CG321       HGA2
   45    44    94	5 ;      OG301      CG321       HGA2
    1    44    93	5 ;      CG311      CG321       HGA2
    1    44    94	5 ;      CG311      CG321       HGA2
   93    44    94	5 ;       HGA2      CG321       HGA2
   46    45    44	5 ;     CG2R61      OG301      CG321
   45    46    53	5 ;      OG301     CG2R61     CG2R61
   45    46    47	5 ;      OG301     CG2R61     CG2R61
   53    46    47	5 ;     CG2R61     CG2R61     CG2R61
   46    47    48	5 ;     CG2R61     CG2R61     CG2R66
   46    47    95	5 ;     CG2R61     CG2R61      HGR62
   48    47    95	5 ;     CG2R66     CG2R61      HGR62
   47    48    50	5 ;     CG2R61     CG2R66     CG2R61
   47    48    49	5 ;     CG2R61     CG2R66       FGR1
   50    48    49	5 ;     CG2R61     CG2R66       FGR1
   51    50    48	5 ;     CG2R66     CG2R61     CG2R66
   51    50    96	5 ;     CG2R66     CG2R61      HGR62
   48    50    96	5 ;     CG2R66     CG2R61      HGR62
   53    51    52	5 ;     CG2R61     CG2R66       FGR1
   53    51    50	5 ;     CG2R61     CG2R66     CG2R61
   52    51    50	5 ;       FGR1     CG2R66     CG2R61
   46    53    51	5 ;     CG2R61     CG2R61     CG2R66
   46    53    97	5 ;     CG2R61     CG2R61      HGR62
   51    53    97	5 ;     CG2R66     CG2R61      HGR62

[ dihedrals ]
;	ai	  aj	ak	  al funct			  c0			c1			  c2			c3			  c4			c5
   44     1    26    29	 9 ;      CG321      CG311      CG311      CG321
   44     1    26    27	 9 ;      CG321      CG311      CG311      OG311
   44     1    26    75	 9 ;      CG321      CG311      CG311       HGA1
    2     1    26    29	 9 ;      NG2S1      CG311      CG311      CG321
    2     1    26    27	 9 ;      NG2S1      CG311      CG311      OG311
    2     1    26    75	 9 ;      NG2S1      CG311      CG311       HGA1
   54     1    26    29	 9 ;       HGA1      CG311      CG311      CG321
   54     1    26    27	 9 ;       HGA1      CG311      CG311      OG311
   54     1    26    75	 9 ;       HGA1      CG311      CG311       HGA1
   26     1    44    45	 9 ;      CG311      CG311      CG321      OG301
   26     1    44    93	 9 ;      CG311      CG311      CG321       HGA2
   26     1    44    94	 9 ;      CG311      CG311      CG321       HGA2
    2     1    44    45	 9 ;      NG2S1      CG311      CG321      OG301
    2     1    44    93	 9 ;      NG2S1      CG311      CG321       HGA2
    2     1    44    94	 9 ;      NG2S1      CG311      CG321       HGA2
   54     1    44    45	 9 ;       HGA1      CG311      CG321      OG301
   54     1    44    93	 9 ;       HGA1      CG311      CG321       HGA2
   54     1    44    94	 9 ;       HGA1      CG311      CG321       HGA2
   26     1     2     5	 9 ;      CG311      CG311      NG2S1       HGP1
   26     1     2     3	 9 ;      CG311      CG311      NG2S1      CG2O1
   44     1     2     5	 9 ;      CG321      CG311      NG2S1       HGP1
   44     1     2     3	 9 ;      CG321      CG311      NG2S1      CG2O1
   54     1     2     5	 9 ;       HGA1      CG311      NG2S1       HGP1
   54     1     2     3	 9 ;       HGA1      CG311      NG2S1      CG2O1
    1     2     3     4	 9 ;      CG311      NG2S1      CG2O1      OG2D1
    1     2     3     6	 9 ;      CG311      NG2S1      CG2O1     CG2DC1
    5     2     3     4	 9 ;       HGP1      NG2S1      CG2O1      OG2D1
    5     2     3     6	 9 ;       HGP1      NG2S1      CG2O1     CG2DC1
    2     3     6     7	 9 ;      NG2S1      CG2O1     CG2DC1     CG2DC1
    2     3     6    12	 9 ;      NG2S1      CG2O1     CG2DC1     CG2DC2
    4     3     6     7	 9 ;      OG2D1      CG2O1     CG2DC1     CG2DC1
    4     3     6    12	 9 ;      OG2D1      CG2O1     CG2DC1     CG2DC2
    3     6     7     8	 9 ;      CG2O1     CG2DC1     CG2DC1      CG311
    3     6     7    55	 9 ;      CG2O1     CG2DC1     CG2DC1       HGA4
   12     6     7     8	 9 ;     CG2DC2     CG2DC1     CG2DC1      CG311
   12     6     7    55	 9 ;     CG2DC2     CG2DC1     CG2DC1       HGA4
    3     6    12    10	 9 ;      CG2O1     CG2DC1     CG2DC2     CG2D2O
    3     6    12    56	 9 ;      CG2O1     CG2DC1     CG2DC2       HGA4
    7     6    12    10	 9 ;     CG2DC1     CG2DC1     CG2DC2     CG2D2O
    7     6    12    56	 9 ;     CG2DC1     CG2DC1     CG2DC2       HGA4
    6     7     8    13	 9 ;     CG2DC1     CG2DC1      CG311      NG301
    6     7     8     9	 9 ;     CG2DC1     CG2DC1      CG311      NG311
    6     7     8    98	 9 ;     CG2DC1     CG2DC1      CG311       HGA1
   55     7     8    13	 9 ;       HGA4     CG2DC1      CG311      NG301
   55     7     8     9	 9 ;       HGA4     CG2DC1      CG311      NG311
   55     7     8    98	 9 ;       HGA4     CG2DC1      CG311       HGA1
    7     8    13    15	 9 ;     CG2DC1      CG311      NG301      CG321
    7     8    13    14	 9 ;     CG2DC1      CG311      NG301      CG331
    9     8    13    15	 9 ;      NG311      CG311      NG301      CG321
    9     8    13    14	 9 ;      NG311      CG311      NG301      CG331
   98     8    13    15	 9 ;       HGA1      CG311      NG301      CG321
   98     8    13    14	 9 ;       HGA1      CG311      NG301      CG331
    7     8     9    10	 9 ;     CG2DC1      CG311      NG311     CG2D2O
    7     8     9    11	 9 ;     CG2DC1      CG311      NG311     HGPAM1
   13     8     9    10	 9 ;      NG301      CG311      NG311     CG2D2O
   13     8     9    11	 9 ;      NG301      CG311      NG311     HGPAM1
   98     8     9    10	 9 ;       HGA1      CG311      NG311     CG2D2O
   98     8     9    11	 9 ;       HGA1      CG311      NG311     HGPAM1
    8     9    10    12	 9 ;      CG311      NG311     CG2D2O     CG2DC2
    8     9    10    20	 9 ;      CG311      NG311     CG2D2O      NG301
   11     9    10    12	 9 ;     HGPAM1      NG311     CG2D2O     CG2DC2
   11     9    10    20	 9 ;     HGPAM1      NG311     CG2D2O      NG301
    9    10    12     6	 9 ;      NG311     CG2D2O     CG2DC2     CG2DC1
    9    10    12    56	 9 ;      NG311     CG2D2O     CG2DC2       HGA4
   20    10    12     6	 9 ;      NG301     CG2D2O     CG2DC2     CG2DC1
   20    10    12    56	 9 ;      NG301     CG2D2O     CG2DC2       HGA4
   12    10    20    21	 9 ;     CG2DC2     CG2D2O      NG301      CG331
   12    10    20    22	 9 ;     CG2DC2     CG2D2O      NG301      SG3O2
    9    10    20    21	 9 ;      NG311     CG2D2O      NG301      CG331
    9    10    20    22	 9 ;      NG311     CG2D2O      NG301      SG3O2
    8    13    15    16	 9 ;      CG311      NG301      CG321     CG3C31
    8    13    15    60	 9 ;      CG311      NG301      CG321       HGA2
    8    13    15    61	 9 ;      CG311      NG301      CG321       HGA2
   14    13    15    16	 9 ;      CG331      NG301      CG321     CG3C31
   14    13    15    60	 9 ;      CG331      NG301      CG321       HGA2
   14    13    15    61	 9 ;      CG331      NG301      CG321       HGA2
   15    13    14    57	 9 ;      CG321      NG301      CG331       HGA3
   15    13    14    58	 9 ;      CG321      NG301      CG331       HGA3
   15    13    14    59	 9 ;      CG321      NG301      CG331       HGA3
    8    13    14    57	 9 ;      CG311      NG301      CG331       HGA3
    8    13    14    58	 9 ;      CG311      NG301      CG331       HGA3
    8    13    14    59	 9 ;      CG311      NG301      CG331       HGA3
   13    15    16    18	 9 ;      NG301      CG321     CG3C31     CG3C31
   13    15    16    17	 9 ;      NG301      CG321     CG3C31     CG3C31
   13    15    16    62	 9 ;      NG301      CG321     CG3C31       HGA1
   60    15    16    18	 9 ;       HGA2      CG321     CG3C31     CG3C31
   60    15    16    17	 9 ;       HGA2      CG321     CG3C31     CG3C31
   60    15    16    62	 9 ;       HGA2      CG321     CG3C31       HGA1
   61    15    16    18	 9 ;       HGA2      CG321     CG3C31     CG3C31
   61    15    16    17	 9 ;       HGA2      CG321     CG3C31     CG3C31
   61    15    16    62	 9 ;       HGA2      CG321     CG3C31       HGA1
   17    16    18    19	 9 ;     CG3C31     CG3C31     CG3C31      CG331
   17    16    18    65	 9 ;     CG3C31     CG3C31     CG3C31       HGA1
   15    16    18    19	 9 ;      CG321     CG3C31     CG3C31      CG331
   15    16    18    17	 9 ;      CG321     CG3C31     CG3C31     CG3C31
   15    16    18    65	 9 ;      CG321     CG3C31     CG3C31       HGA1
   62    16    18    19	 9 ;       HGA1     CG3C31     CG3C31      CG331
   62    16    18    17	 9 ;       HGA1     CG3C31     CG3C31     CG3C31
   62    16    18    65	 9 ;       HGA1     CG3C31     CG3C31       HGA1
   18    16    17    63	 9 ;     CG3C31     CG3C31     CG3C31       HGA2
   18    16    17    64	 9 ;     CG3C31     CG3C31     CG3C31       HGA2
   15    16    17    18	 9 ;      CG321     CG3C31     CG3C31     CG3C31
   15    16    17    63	 9 ;      CG321     CG3C31     CG3C31       HGA2
   15    16    17    64	 9 ;      CG321     CG3C31     CG3C31       HGA2
   62    16    17    18	 9 ;       HGA1     CG3C31     CG3C31     CG3C31
   62    16    17    63	 9 ;       HGA1     CG3C31     CG3C31       HGA2
   62    16    17    64	 9 ;       HGA1     CG3C31     CG3C31       HGA2
   16    17    18    19	 9 ;     CG3C31     CG3C31     CG3C31      CG331
   16    17    18    65	 9 ;     CG3C31     CG3C31     CG3C31       HGA1
   63    17    18    19	 9 ;       HGA2     CG3C31     CG3C31      CG331
   63    17    18    16	 9 ;       HGA2     CG3C31     CG3C31     CG3C31
   63    17    18    65	 9 ;       HGA2     CG3C31     CG3C31       HGA1
   64    17    18    19	 9 ;       HGA2     CG3C31     CG3C31      CG331
   64    17    18    16	 9 ;       HGA2     CG3C31     CG3C31     CG3C31
   64    17    18    65	 9 ;       HGA2     CG3C31     CG3C31       HGA1
   17    18    19    66	 9 ;     CG3C31     CG3C31      CG331       HGA3
   17    18    19    67	 9 ;     CG3C31     CG3C31      CG331       HGA3
   17    18    19    68	 9 ;     CG3C31     CG3C31      CG331       HGA3
   16    18    19    66	 9 ;     CG3C31     CG3C31      CG331       HGA3
   16    18    19    67	 9 ;     CG3C31     CG3C31      CG331       HGA3
   16    18    19    68	 9 ;     CG3C31     CG3C31      CG331       HGA3
   65    18    19    66	 9 ;       HGA1     CG3C31      CG331       HGA3
   65    18    19    67	 9 ;       HGA1     CG3C31      CG331       HGA3
   65    18    19    68	 9 ;       HGA1     CG3C31      CG331       HGA3
   10    20    21    69	 9 ;     CG2D2O      NG301      CG331       HGA3
   10    20    21    70	 9 ;     CG2D2O      NG301      CG331       HGA3
   10    20    21    71	 9 ;     CG2D2O      NG301      CG331       HGA3
   22    20    21    69	 9 ;      SG3O2      NG301      CG331       HGA3
   22    20    21    70	 9 ;      SG3O2      NG301      CG331       HGA3
   22    20    21    71	 9 ;      SG3O2      NG301      CG331       HGA3
   10    20    22    23	 9 ;     CG2D2O      NG301      SG3O2      OG2P1
   10    20    22    24	 9 ;     CG2D2O      NG301      SG3O2      OG2P1
   10    20    22    25	 9 ;     CG2D2O      NG301      SG3O2      CG331
   21    20    22    23	 9 ;      CG331      NG301      SG3O2      OG2P1
   21    20    22    24	 9 ;      CG331      NG301      SG3O2      OG2P1
   21    20    22    25	 9 ;      CG331      NG301      SG3O2      CG331
   20    22    25    72	 9 ;      NG301      SG3O2      CG331       HGA3
   20    22    25    73	 9 ;      NG301      SG3O2      CG331       HGA3
   20    22    25    74	 9 ;      NG301      SG3O2      CG331       HGA3
   23    22    25    72	 9 ;      OG2P1      SG3O2      CG331       HGA3
   23    22    25    73	 9 ;      OG2P1      SG3O2      CG331       HGA3
   23    22    25    74	 9 ;      OG2P1      SG3O2      CG331       HGA3
   24    22    25    72	 9 ;      OG2P1      SG3O2      CG331       HGA3
   24    22    25    73	 9 ;      OG2P1      SG3O2      CG331       HGA3
   24    22    25    74	 9 ;      OG2P1      SG3O2      CG331       HGA3
    1    26    29    30	 9 ;      CG311      CG311      CG321      CG311
    1    26    29    76	 9 ;      CG311      CG311      CG321       HGA2
    1    26    29    77	 9 ;      CG311      CG311      CG321       HGA2
   27    26    29    30	 9 ;      OG311      CG311      CG321      CG311
   27    26    29    76	 9 ;      OG311      CG311      CG321       HGA2
   27    26    29    77	 9 ;      OG311      CG311      CG321       HGA2
   75    26    29    30	 9 ;       HGA1      CG311      CG321      CG311
   75    26    29    76	 9 ;       HGA1      CG311      CG321       HGA2
   75    26    29    77	 9 ;       HGA1      CG311      CG321       HGA2
   29    26    27    28	 9 ;      CG321      CG311      OG311       HGP1
    1    26    27    28	 9 ;      CG311      CG311      OG311       HGP1
   75    26    27    28	 9 ;       HGA1      CG311      OG311       HGP1
   26    29    30    33	 9 ;      CG311      CG321      CG311      CG321
   26    29    30    31	 9 ;      CG311      CG321      CG311      OG301
   26    29    30    78	 9 ;      CG311      CG321      CG311       HGA1
   76    29    30    33	 9 ;       HGA2      CG321      CG311      CG321
   76    29    30    31	 9 ;       HGA2      CG321      CG311      OG301
   76    29    30    78	 9 ;       HGA2      CG321      CG311       HGA1
   77    29    30    33	 9 ;       HGA2      CG321      CG311      CG321
   77    29    30    31	 9 ;       HGA2      CG321      CG311      OG301
   77    29    30    78	 9 ;       HGA2      CG321      CG311       HGA1
   31    30    33    34	 9 ;      OG301      CG311      CG321      OG301
   31    30    33    82	 9 ;      OG301      CG311      CG321       HGA2
   31    30    33    83	 9 ;      OG301      CG311      CG321       HGA2
   29    30    33    34	 9 ;      CG321      CG311      CG321      OG301
   29    30    33    82	 9 ;      CG321      CG311      CG321       HGA2
   29    30    33    83	 9 ;      CG321      CG311      CG321       HGA2
   78    30    33    34	 9 ;       HGA1      CG311      CG321      OG301
   78    30    33    82	 9 ;       HGA1      CG311      CG321       HGA2
   78    30    33    83	 9 ;       HGA1      CG311      CG321       HGA2
   33    30    31    32	 9 ;      CG321      CG311      OG301      CG331
   29    30    31    32	 9 ;      CG321      CG311      OG301      CG331
   78    30    31    32	 9 ;       HGA1      CG311      OG301      CG331
   30    31    32    79	 9 ;      CG311      OG301      CG331       HGA3
   30    31    32    80	 9 ;      CG311      OG301      CG331       HGA3
   30    31    32    81	 9 ;      CG311      OG301      CG331       HGA3
   30    33    34    35	 9 ;      CG311      CG321      OG301      CG321
   82    33    34    35	 9 ;       HGA2      CG321      OG301      CG321
   83    33    34    35	 9 ;       HGA2      CG321      OG301      CG321
   33    34    35    36	 9 ;      CG321      OG301      CG321     CG2R61
   33    34    35    84	 9 ;      CG321      OG301      CG321       HGA2
   33    34    35    85	 9 ;      CG321      OG301      CG321       HGA2
   34    35    36    41	 9 ;      OG301      CG321     CG2R61     CG2R61
   34    35    36    37	 9 ;      OG301      CG321     CG2R61     CG2R61
   84    35    36    41	 9 ;       HGA2      CG321     CG2R61     CG2R61
   84    35    36    37	 9 ;       HGA2      CG321     CG2R61     CG2R61
   85    35    36    41	 9 ;       HGA2      CG321     CG2R61     CG2R61
   85    35    36    37	 9 ;       HGA2      CG321     CG2R61     CG2R61
   35    36    41    40	 9 ;      CG321     CG2R61     CG2R61     CG2R61
   35    36    41    89	 9 ;      CG321     CG2R61     CG2R61      HGR61
   37    36    41    40	 9 ;     CG2R61     CG2R61     CG2R61     CG2R61
   37    36    41    89	 9 ;     CG2R61     CG2R61     CG2R61      HGR61
   35    36    37    38	 9 ;      CG321     CG2R61     CG2R61     CG2R61
   35    36    37    86	 9 ;      CG321     CG2R61     CG2R61      HGR61
   41    36    37    38	 9 ;     CG2R61     CG2R61     CG2R61     CG2R61
   41    36    37    86	 9 ;     CG2R61     CG2R61     CG2R61      HGR61
   36    37    38    39	 9 ;     CG2R61     CG2R61     CG2R61     CG2R61
   36    37    38    87	 9 ;     CG2R61     CG2R61     CG2R61      HGR61
   86    37    38    39	 9 ;      HGR61     CG2R61     CG2R61     CG2R61
   86    37    38    87	 9 ;      HGR61     CG2R61     CG2R61      HGR61
   37    38    39    40	 9 ;     CG2R61     CG2R61     CG2R61     CG2R61
   37    38    39    42	 9 ;     CG2R61     CG2R61     CG2R61      OG301
   87    38    39    40	 9 ;      HGR61     CG2R61     CG2R61     CG2R61
   87    38    39    42	 9 ;      HGR61     CG2R61     CG2R61      OG301
   38    39    40    41	 9 ;     CG2R61     CG2R61     CG2R61     CG2R61
   38    39    40    88	 9 ;     CG2R61     CG2R61     CG2R61      HGR61
   42    39    40    41	 9 ;      OG301     CG2R61     CG2R61     CG2R61
   42    39    40    88	 9 ;      OG301     CG2R61     CG2R61      HGR61
   40    39    42    43	 9 ;     CG2R61     CG2R61      OG301      CG331
   38    39    42    43	 9 ;     CG2R61     CG2R61      OG301      CG331
   39    40    41    36	 9 ;     CG2R61     CG2R61     CG2R61     CG2R61
   39    40    41    89	 9 ;     CG2R61     CG2R61     CG2R61      HGR61
   88    40    41    36	 9 ;      HGR61     CG2R61     CG2R61     CG2R61
   88    40    41    89	 9 ;      HGR61     CG2R61     CG2R61      HGR61
   39    42    43    90	 9 ;     CG2R61      OG301      CG331       HGA3
   39    42    43    91	 9 ;     CG2R61      OG301      CG331       HGA3
   39    42    43    92	 9 ;     CG2R61      OG301      CG331       HGA3
    1    44    45    46	 9 ;      CG311      CG321      OG301     CG2R61
   93    44    45    46	 9 ;       HGA2      CG321      OG301     CG2R61
   94    44    45    46	 9 ;       HGA2      CG321      OG301     CG2R61
   44    45    46    53	 9 ;      CG321      OG301     CG2R61     CG2R61
   44    45    46    47	 9 ;      CG321      OG301     CG2R61     CG2R61
   45    46    53    51	 9 ;      OG301     CG2R61     CG2R61     CG2R66
   45    46    53    97	 9 ;      OG301     CG2R61     CG2R61      HGR62
   47    46    53    51	 9 ;     CG2R61     CG2R61     CG2R61     CG2R66
   47    46    53    97	 9 ;     CG2R61     CG2R61     CG2R61      HGR62
   45    46    47    48	 9 ;      OG301     CG2R61     CG2R61     CG2R66
   45    46    47    95	 9 ;      OG301     CG2R61     CG2R61      HGR62
   53    46    47    48	 9 ;     CG2R61     CG2R61     CG2R61     CG2R66
   53    46    47    95	 9 ;     CG2R61     CG2R61     CG2R61      HGR62
   46    47    48    50	 9 ;     CG2R61     CG2R61     CG2R66     CG2R61
   46    47    48    49	 9 ;     CG2R61     CG2R61     CG2R66       FGR1
   95    47    48    50	 9 ;      HGR62     CG2R61     CG2R66     CG2R61
   95    47    48    49	 9 ;      HGR62     CG2R61     CG2R66       FGR1
   47    48    50    51	 9 ;     CG2R61     CG2R66     CG2R61     CG2R66
   47    48    50    96	 9 ;     CG2R61     CG2R66     CG2R61      HGR62
   49    48    50    51	 9 ;       FGR1     CG2R66     CG2R61     CG2R66
   49    48    50    96	 9 ;       FGR1     CG2R66     CG2R61      HGR62
   48    50    51    53	 9 ;     CG2R66     CG2R61     CG2R66     CG2R61
   48    50    51    52	 9 ;     CG2R66     CG2R61     CG2R66       FGR1
   96    50    51    53	 9 ;      HGR62     CG2R61     CG2R66     CG2R61
   96    50    51    52	 9 ;      HGR62     CG2R61     CG2R66       FGR1
   52    51    53    46	 9 ;       FGR1     CG2R66     CG2R61     CG2R61
   52    51    53    97	 9 ;       FGR1     CG2R66     CG2R61      HGR62
   50    51    53    46	 9 ;     CG2R61     CG2R66     CG2R61     CG2R61
   50    51    53    97	 9 ;     CG2R61     CG2R66     CG2R61      HGR62

[ dihedrals ]
;	ai	  aj	ak	  al funct			  c0			c1			  c2			c3
    3     6     2     4	 2
   10    12    20     9	 2

