Gnomes, ROck Monsters And Chili Sauce
   98
    1LIG     C1    1  -1.321   0.416  -1.638
    1LIG     N1    2  -1.465   0.456  -1.662
    1LIG     C2    3  -1.568   0.423  -1.573
    1LIG     O1    4  -1.548   0.353  -1.475
    1LIG     H1    5  -1.481   0.525  -1.733
    1LIG     C3    6  -1.709   0.471  -1.594
    1LIG     C4    7  -1.751   0.556  -1.696
    1LIG     C5    8  -1.882   0.609  -1.697
    1LIG     N2    9  -1.972   0.569  -1.604
    1LIG     C6   10  -1.933   0.479  -1.511
    1LIG     HN   11  -2.067   0.605  -1.605
    1LIG     C7   12  -1.804   0.431  -1.500
    1LIG     N3   13  -1.924   0.701  -1.795
    1LIG     C8   14  -2.061   0.750  -1.788
    1LIG     C9   15  -1.872   0.679  -1.933
    1LIG    C10   16  -1.754   0.771  -1.961
    1LIG    C11   17  -1.625   0.713  -2.014
    1LIG    C12   18  -1.707   0.804  -2.102
    1LIG    C13   19  -1.655   0.940  -2.135
    1LIG     N4   20  -2.038   0.430  -1.430
    1LIG    C14   21  -2.036   0.288  -1.391
    1LIG      S   22  -2.188   0.504  -1.455
    1LIG     O2   23  -2.236   0.470  -1.587
    1LIG     O3   24  -2.182   0.643  -1.413
    1LIG    C15   25  -2.290   0.417  -1.339
    1LIG    C16   26  -1.257   0.494  -1.517
    1LIG     O4   27  -1.255   0.408  -1.402
    1LIG     H2   28  -1.258   0.317  -1.439
    1LIG    C17   29  -1.113   0.551  -1.533
    1LIG    C18   30  -1.110   0.698  -1.579
    1LIG     O5   31  -1.008   0.772  -1.508
    1LIG    C19   32  -0.890   0.803  -1.582
    1LIG    C20   33  -1.101   0.724  -1.731
    1LIG     O6   34  -1.228   0.713  -1.798
    1LIG    C21   35  -1.280   0.845  -1.828
    1LIG    C22   36  -1.412   0.873  -1.758
    1LIG    C23   37  -1.452   0.799  -1.647
    1LIG    C24   38  -1.569   0.833  -1.575
    1LIG    C25   39  -1.646   0.942  -1.614
    1LIG    C26   40  -1.607   1.016  -1.726
    1LIG    C27   41  -1.491   0.983  -1.798
    1LIG     O7   42  -1.759   0.987  -1.551
    1LIG    C28   43  -1.752   1.117  -1.492
    1LIG    C29   44  -1.303   0.261  -1.615
    1LIG     O8   45  -1.166   0.215  -1.620
    1LIG    C30   46  -1.137   0.111  -1.533
    1LIG    C31   47  -1.217  -0.003  -1.545
    1LIG    C32   48  -1.202  -0.109  -1.455
    1LIG     F1   49  -1.285  -0.214  -1.463
    1LIG    C33   50  -1.105  -0.108  -1.357
    1LIG    C34   51  -1.019   0.001  -1.352
    1LIG     F2   52  -0.919   0.001  -1.263
    1LIG    C35   53  -1.034   0.111  -1.438
    1LIG     HC   54  -1.264   0.442  -1.728
    1LIG    HC1   55  -1.682   0.582  -1.776
    1LIG    HC2   56  -1.777   0.363  -1.420
    1LIG    HC3   57  -2.078   0.822  -1.868
    1LIG    HC4   58  -2.130   0.667  -1.798
    1LIG    HC5   59  -2.076   0.799  -1.691
    1LIG    HC6   60  -1.840   0.576  -1.943
    1LIG    HC7   61  -1.951   0.700  -2.004
    1LIG    HC8   62  -1.741   0.851  -1.888
    1LIG    HC9   63  -1.618   0.607  -2.037
    1LIG   HC10   64  -1.534   0.758  -1.974
    1LIG   HC11   65  -1.762   0.755  -2.182
    1LIG   HC12   66  -1.726   0.993  -2.199
    1LIG   HC13   67  -1.640   0.997  -2.043
    1LIG   HC14   68  -1.559   0.931  -2.187
    1LIG   HC15   69  -1.938   0.246  -1.414
    1LIG   HC16   70  -2.112   0.234  -1.448
    1LIG   HC17   71  -2.056   0.278  -1.285
    1LIG   HC18   72  -2.384   0.471  -1.325
    1LIG   HC19   73  -2.238   0.408  -1.244
    1LIG   HC20   74  -2.312   0.317  -1.378
    1LIG   HC21   75  -1.323   0.578  -1.494
    1LIG   HC22   76  -1.062   0.544  -1.437
    1LIG   HC23   77  -1.060   0.491  -1.606
    1LIG   HC24   78  -1.205   0.741  -1.547
    1LIG   HC25   79  -0.811   0.834  -1.513
    1LIG   HC26   80  -0.857   0.715  -1.637
    1LIG   HC27   81  -0.911   0.884  -1.651
    1LIG   HC28   82  -1.033   0.650  -1.774
    1LIG   HC29   83  -1.061   0.823  -1.748
    1LIG   HC30   84  -1.295   0.853  -1.936
    1LIG   HC31   85  -1.207   0.919  -1.797
    1LIG   HC32   86  -1.393   0.715  -1.615
    1LIG   HC33   87  -1.598   0.774  -1.490
    1LIG   HC34   88  -1.667   1.100  -1.757
    1LIG   HC35   89  -1.463   1.041  -1.884
    1LIG   HC36   90  -1.847   1.141  -1.446
    1LIG   HC37   91  -1.729   1.191  -1.569
    1LIG   HC38   92  -1.673   1.118  -1.417
    1LIG   HC39   93  -1.359   0.209  -1.692
    1LIG   HC40   94  -1.345   0.236  -1.518
    1LIG   HC41   95  -1.290  -0.009  -1.624
    1LIG   HC42   96  -1.096  -0.189  -1.286
    1LIG   HC43   97  -0.967   0.195  -1.431
    1LIG    H48   98  -1.850   0.692  -1.633
   0.00000   0.00000   0.00000
