God Rules Over Mankind, Animals, Cosmos and Such
   76
    1LIG     N1    1  -1.713   0.616  -1.581
    1LIG     H1    2  -1.623   0.665  -1.563
    1LIG     H2    3  -1.774   0.652  -1.507
    1LIG     C1    4  -1.759   0.674  -1.714
    1LIG     C2    5  -1.680   0.805  -1.733
    1LIG     O1    6  -1.784   0.896  -1.773
    1LIG     H3    7  -1.807   0.953  -1.695
    1LIG     C3    8  -1.594   0.855  -1.611
    1LIG     C4    9  -1.456   0.907  -1.661
    1LIG     C5   10  -1.339   0.815  -1.634
    1LIG     C6   11  -1.235   0.801  -1.726
    1LIG     C7   12  -1.127   0.716  -1.699
    1LIG     F1   13  -1.029   0.705  -1.790
    1LIG     C8   14  -1.120   0.645  -1.581
    1LIG     C9   15  -1.221   0.659  -1.488
    1LIG    C10   16  -1.330   0.743  -1.513
    1LIG     F2   17  -1.216   0.591  -1.373
    1LIG     N2   18  -1.659   0.966  -1.536
    1LIG    C11   19  -1.755   0.954  -1.438
    1LIG     O2   20  -1.808   0.847  -1.410
    1LIG    C12   21  -1.790   1.082  -1.368
    1LIG     H4   22  -1.604   1.051  -1.526
    1LIG    C13   23  -1.695   0.467  -1.554
    1LIG    C14   24  -1.804   0.389  -1.633
    1LIG    C15   25  -1.802   0.239  -1.597
    1LIG    C16   26  -1.826   0.217  -1.448
    1LIG    C17   27  -1.729   0.296  -1.361
    1LIG    C18   28  -1.721   0.444  -1.402
    1LIG    C19   29  -1.552   0.431  -1.603
    1LIG    C20   30  -1.469   0.341  -1.529
    1LIG    C21   31  -1.341   0.304  -1.574
    1LIG    C22   32  -1.292   0.359  -1.693
    1LIG    C23   33  -1.371   0.446  -1.767
    1LIG    C24   34  -1.500   0.479  -1.724
    1LIG    C25   35  -1.257   0.199  -1.500
    1LIG    C26   36  -1.182   0.258  -1.378
    1LIG    C27   37  -1.121   0.149  -1.289
    1LIG     O3   38  -0.993   0.102  -1.328
    1LIG    C28   39  -0.972   0.080  -1.466
    1LIG     O4   40  -1.084   0.028  -1.536
    1LIG    C29   41  -1.162   0.130  -1.598
    1LIG    HC2   42  -1.737   0.604  -1.795
    1LIG    HC3   43  -1.866   0.694  -1.710
    1LIG     HC   44  -1.613   0.792  -1.818
    1LIG    HC1   45  -1.578   0.771  -1.543
    1LIG    HC4   46  -1.436   1.002  -1.612
    1LIG    HC5   47  -1.462   0.924  -1.768
    1LIG    HC6   48  -1.238   0.856  -1.819
    1LIG    HC7   49  -1.036   0.578  -1.562
    1LIG    HC8   50  -1.408   0.753  -1.439
    1LIG    HC9   51  -1.901   0.430  -1.609
    1LIG   HC10   52  -1.785   0.400  -1.740
    1LIG   HC11   53  -1.706   0.197  -1.624
    1LIG   HC12   54  -1.880   0.189  -1.653
    1LIG   HC13   55  -1.927   0.248  -1.423
    1LIG   HC14   56  -1.814   0.111  -1.425
    1LIG   HC15   57  -1.762   0.291  -1.257
    1LIG   HC16   58  -1.630   0.252  -1.369
    1LIG   HC17   59  -1.639   0.491  -1.347
    1LIG   HC18   60  -1.814   0.493  -1.375
    1LIG   HC19   61  -1.506   0.301  -1.436
    1LIG   HC20   62  -1.193   0.334  -1.727
    1LIG   HC21   63  -1.333   0.488  -1.859
    1LIG   HC22   64  -1.561   0.544  -1.786
    1LIG   HC23   65  -1.326   0.123  -1.462
    1LIG   HC24   66  -1.102   0.323  -1.413
    1LIG   HC25   67  -1.252   0.317  -1.318
    1LIG   HC26   68  -1.113   0.188  -1.188
    1LIG   HC27   69  -1.190   0.064  -1.287
    1LIG   HC28   70  -0.945   0.175  -1.512
    1LIG   HC29   71  -0.888   0.011  -1.478
    1LIG   HC30   72  -1.220   0.085  -1.678
    1LIG   HC31   73  -1.094   0.204  -1.641
    1LIG   HC32   74  -1.866   1.062  -1.292
    1LIG   HC33   75  -1.701   1.123  -1.320
    1LIG   HC34   76  -1.828   1.154  -1.440
   0.00000   0.00000   0.00000
