Georgetown Riga Oslo Madrid Amsterdam Chisinau Stockholm
   88
    1LIG     C1    1  -1.732   0.405  -1.682
    1LIG     N1    2  -1.589   0.428  -1.654
    1LIG     C2    3  -1.496   0.433  -1.757
    1LIG     O1    4  -1.530   0.462  -1.872
    1LIG     H1    5  -1.557   0.405  -1.560
    1LIG     C3    6  -1.355   0.393  -1.728
    1LIG     C4    7  -1.324   0.298  -1.630
    1LIG     C5    8  -1.195   0.244  -1.621
    1LIG     C6    9  -1.092   0.294  -1.701
    1LIG     C7   10  -1.118   0.392  -1.798
    1LIG     C8   11  -1.250   0.441  -1.811
    1LIG     C9   12  -1.007   0.441  -1.887
    1LIG    C10   13  -1.166   0.132  -1.528
    1LIG     O2   14  -1.167   0.019  -1.576
    1LIG     N2   15  -1.139   0.157  -1.392
    1LIG    C11   16  -1.082   0.046  -1.314
    1LIG    C12   17  -0.954  -0.010  -1.374
    1LIG    C13   18  -0.856   0.101  -1.411
    1LIG    C14   19  -1.161   0.283  -1.320
    1LIG    C15   20  -1.061   0.394  -1.352
    1LIG    C16   21  -1.130   0.525  -1.388
    1LIG    C17   22  -1.774   0.265  -1.629
    1LIG    C18   23  -1.827   0.262  -1.487
    1LIG    C19   24  -1.760   0.326  -1.382
    1LIG    C20   25  -1.804   0.309  -1.251
    1LIG     F1   26  -1.735   0.367  -1.151
    1LIG    C21   27  -1.914   0.231  -1.221
    1LIG    C22   28  -1.985   0.175  -1.325
    1LIG    C23   29  -1.946   0.193  -1.458
    1LIG     F2   30  -2.091   0.097  -1.300
    1LIG    C24   31  -1.823   0.525  -1.639
    1LIG     O3   32  -1.929   0.550  -1.732
    1LIG     H2   33  -2.012   0.557  -1.680
    1LIG    C25   34  -1.764   0.662  -1.601
    1LIG     N3   35  -1.867   0.731  -1.509
    1LIG    C26   36  -1.822   0.865  -1.461
    1LIG     H3   37  -1.955   0.736  -1.563
    1LIG     H4   38  -1.888   0.670  -1.429
    1LIG    C27   39  -1.779   0.953  -1.579
    1LIG     N4   40  -1.689   0.883  -1.671
    1LIG    C28   41  -1.724   0.756  -1.717
    1LIG     O4   42  -1.708   0.717  -1.832
    1LIG    C29   43  -1.584   0.961  -1.739
    1LIG    C30   44  -1.447   0.901  -1.712
    1LIG    C31   45  -1.411   0.859  -1.583
    1LIG    C32   46  -1.288   0.797  -1.559
    1LIG    C33   47  -1.201   0.773  -1.665
    1LIG    C34   48  -1.235   0.815  -1.794
    1LIG    C35   49  -1.357   0.879  -1.817
    1LIG     HC   50  -1.740   0.399  -1.791
    1LIG    HC1   51  -1.401   0.265  -1.562
    1LIG    HC2   52  -0.991   0.256  -1.689
    1LIG    HC3   53  -1.272   0.516  -1.885
    1LIG    HC4   54  -1.046   0.516  -1.955
    1LIG    HC5   55  -0.928   0.484  -1.826
    1LIG    HC6   56  -0.968   0.357  -1.945
    1LIG    HC7   57  -1.156  -0.034  -1.308
    1LIG    HC8   58  -1.061   0.082  -1.213
    1LIG    HC9   59  -0.907  -0.076  -1.302
    1LIG   HC10   60  -0.979  -0.067  -1.464
    1LIG   HC11   61  -0.766   0.057  -1.454
    1LIG   HC12   62  -0.830   0.157  -1.321
    1LIG   HC13   63  -0.902   0.167  -1.484
    1LIG   HC14   64  -1.261   0.320  -1.345
    1LIG   HC15   65  -1.158   0.264  -1.213
    1LIG   HC16   66  -0.997   0.411  -1.265
    1LIG   HC17   67  -0.999   0.363  -1.436
    1LIG   HC18   68  -1.055   0.601  -1.410
    1LIG   HC19   69  -1.191   0.558  -1.304
    1LIG   HC20   70  -1.194   0.510  -1.475
    1LIG   HC21   71  -1.687   0.200  -1.633
    1LIG   HC22   72  -1.851   0.224  -1.695
    1LIG   HC23   73  -1.673   0.387  -1.403
    1LIG   HC24   74  -1.944   0.214  -1.118
    1LIG   HC25   75  -2.006   0.153  -1.538
    1LIG   HC26   76  -1.873   0.490  -1.549
    1LIG   HC27   77  -1.674   0.644  -1.542
    1LIG   HC28   78  -1.904   0.914  -1.408
    1LIG   HC29   79  -1.737   0.853  -1.393
    1LIG   HC30   80  -1.868   0.983  -1.634
    1LIG   HC31   81  -1.729   1.042  -1.541
    1LIG   HC32   82  -1.604   0.960  -1.846
    1LIG   HC33   83  -1.587   1.064  -1.702
    1LIG   HC34   84  -1.478   0.876  -1.501
    1LIG   HC35   85  -1.262   0.766  -1.459
    1LIG   HC36   86  -1.108   0.722  -1.647
    1LIG   HC37   87  -1.166   0.797  -1.875
    1LIG   HC38   88  -1.382   0.911  -1.917
   0.00000   0.00000   0.00000
