Giant Rising Ordinary Mutants for A Clerical Setup
   81
    1LIG     C1    1  -1.675   0.575  -1.480
    1LIG     C2    2  -1.649   0.725  -1.448
    1LIG     C3    3  -1.673   0.825  -1.562
    1LIG     N1    4  -1.539   0.891  -1.589
    1LIG     H1    5  -1.484   0.880  -1.503
    1LIG     H2    6  -1.551   0.992  -1.602
    1LIG     C4    7  -1.461   0.835  -1.704
    1LIG     C5    8  -1.314   0.829  -1.672
    1LIG     C6    9  -1.219   0.837  -1.776
    1LIG     C7   10  -1.084   0.825  -1.748
    1LIG     C8   11  -1.042   0.803  -1.616
    1LIG     C9   12  -1.136   0.796  -1.513
    1LIG    C10   13  -1.272   0.809  -1.541
    1LIG     O1   14  -0.982   0.831  -1.839
    1LIG    C11   15  -0.849   0.810  -1.792
    1LIG     O2   16  -1.724   0.775  -1.336
    1LIG     H3   17  -1.747   0.702  -1.276
    1LIG     N2   18  -1.551   0.516  -1.531
    1LIG    C12   19  -1.532   0.461  -1.657
    1LIG     O3   20  -1.616   0.466  -1.745
    1LIG     H4   21  -1.471   0.531  -1.473
    1LIG    C13   22  -1.393   0.410  -1.681
    1LIG    C14   23  -1.357   0.284  -1.630
    1LIG    C15   24  -1.224   0.245  -1.621
    1LIG    C16   25  -1.125   0.329  -1.674
    1LIG    C17   26  -1.161   0.450  -1.736
    1LIG    C18   27  -1.294   0.492  -1.738
    1LIG    C19   28  -1.185   0.130  -1.533
    1LIG     O4   29  -1.192   0.018  -1.583
    1LIG     N3   30  -1.132   0.151  -1.404
    1LIG    C20   31  -1.075   0.034  -1.336
    1LIG    C21   32  -0.938  -0.013  -1.386
    1LIG    C22   33  -0.839   0.101  -1.409
    1LIG    C23   34  -1.188   0.254  -1.314
    1LIG    C24   35  -1.099   0.377  -1.298
    1LIG    C25   36  -1.173   0.501  -1.349
    1LIG    C26   37  -1.710   0.507  -1.345
    1LIG    C27   38  -1.780   0.374  -1.346
    1LIG    C28   39  -1.823   0.314  -1.226
    1LIG    C29   40  -1.905   0.201  -1.229
    1LIG    C30   41  -1.945   0.147  -1.351
    1LIG    C31   42  -1.901   0.204  -1.470
    1LIG    C32   43  -1.818   0.316  -1.467
    1LIG     HC   44  -1.756   0.564  -1.552
    1LIG    HC1   45  -1.544   0.733  -1.420
    1LIG    HC2   46  -1.746   0.900  -1.531
    1LIG    HC3   47  -1.707   0.772  -1.651
    1LIG    HC4   48  -1.475   0.899  -1.791
    1LIG    HC5   49  -1.497   0.735  -1.726
    1LIG    HC6   50  -1.252   0.855  -1.877
    1LIG    HC7   51  -0.937   0.791  -1.594
    1LIG    HC8   52  -1.103   0.781  -1.411
    1LIG    HC9   53  -1.344   0.804  -1.460
    1LIG   HC10   54  -0.780   0.815  -1.876
    1LIG   HC11   55  -0.824   0.887  -1.720
    1LIG   HC12   56  -0.843   0.712  -1.745
    1LIG   HC13   57  -1.434   0.217  -1.597
    1LIG   HC14   58  -1.021   0.301  -1.667
    1LIG   HC15   59  -1.085   0.511  -1.782
    1LIG   HC16   60  -1.321   0.586  -1.783
    1LIG   HC17   61  -1.145  -0.049  -1.348
    1LIG   HC18   62  -1.067   0.056  -1.229
    1LIG   HC19   63  -0.895  -0.081  -1.312
    1LIG   HC20   64  -0.951  -0.067  -1.480
    1LIG   HC21   65  -0.744   0.060  -1.445
    1LIG   HC22   66  -0.879   0.169  -1.484
    1LIG   HC23   67  -0.823   0.154  -1.315
    1LIG   HC24   68  -1.284   0.285  -1.353
    1LIG   HC25   69  -1.203   0.209  -1.215
    1LIG   HC26   70  -1.074   0.391  -1.193
    1LIG   HC27   71  -1.008   0.364  -1.356
    1LIG   HC28   72  -1.109   0.588  -1.337
    1LIG   HC29   73  -1.264   0.515  -1.291
    1LIG   HC30   74  -1.198   0.487  -1.454
    1LIG   HC31   75  -1.616   0.493  -1.291
    1LIG   HC32   76  -1.771   0.576  -1.288
    1LIG   HC33   77  -1.792   0.356  -1.131
    1LIG   HC34   78  -1.937   0.155  -1.137
    1LIG   HC35   79  -2.010   0.061  -1.353
    1LIG   HC36   80  -1.931   0.162  -1.565
    1LIG   HC37   81  -1.782   0.359  -1.560
   0.00000   0.00000   0.00000
