; Created by cgenff_charmm2gmx.py

[ moleculetype ]
; Name			   nrexcl
LIG				 3

[ atoms ]
;	 nr		  type	resnr residue  atom   cgnr	   charge		mass  typeB    chargeB		massB
; residue	 1 LIG rtp LIG q	qsum
     1      CG311      1    LIG     C1      1      0.010     12.011   ;
     2      CG311      1    LIG     C2      2      0.094     12.011   ;
     3      CG324      1    LIG     C3      3      0.178     12.011   ;
     4      NG3P2      1    LIG     N1      4     -0.444     14.007   ;
     5       HGP2      1    LIG     H1      5      0.348      1.008   ;
     6       HGP2      1    LIG     H2      6      0.348      1.008   ;
     7      CG324      1    LIG     C4      7      0.171     12.011   ;
     8     CG2R61      1    LIG     C5      8      0.036     12.011   ;
     9     CG2R61      1    LIG     C6      9     -0.124     12.011   ;
    10     CG2R61      1    LIG     C7     10      0.216     12.011   ;
    11     CG2R61      1    LIG     C8     11     -0.121     12.011   ;
    12     CG2R61      1    LIG     C9     12     -0.108     12.011   ;
    13     CG2R61      1    LIG    C10     13     -0.119     12.011   ;
    14      OG301      1    LIG     O1     14     -0.383     15.999   ;
    15      CG331      1    LIG    C11     15     -0.094     12.011   ;
    16      OG311      1    LIG     O2     16     -0.625     15.999   ;
    17       HGP1      1    LIG     H3     17      0.415      1.008   ;
    18      NG2S1      1    LIG     N2     18     -0.226     14.007   ;
    19      CG2O1      1    LIG    C12     19      0.302     12.011   ;
    20      OG2D1      1    LIG     O3     20     -0.463     15.999   ;
    21       HGP1      1    LIG     H4     21      0.262      1.008   ;
    22     CG2R61      1    LIG    C13     22     -0.105     12.011   ;
    23     CG2R61      1    LIG    C14     23     -0.003     12.011   ;
    24     CG2R61      1    LIG    C15     24     -0.164     12.011   ;
    25     CG2R61      1    LIG    C16     25     -0.059     12.011   ;
    26     CG2R61      1    LIG    C17     26     -0.112     12.011   ;
    27     CG2R61      1    LIG    C18     27     -0.060     12.011   ;
    28      CG2O1      1    LIG    C19     28      0.400     12.011   ;
    29      OG2D1      1    LIG     O4     29     -0.476     15.999   ;
    30      NG2S0      1    LIG     N3     30     -0.418     14.007   ;
    31      CG321      1    LIG    C20     31      0.096     12.011   ;
    32      CG321      1    LIG    C21     32     -0.170     12.011   ;
    33      CG331      1    LIG    C22     33     -0.285     12.011   ;
    34      CG321      1    LIG    C23     34      0.096     12.011   ;
    35      CG321      1    LIG    C24     35     -0.170     12.011   ;
    36      CG331      1    LIG    C25     36     -0.285     12.011   ;
    37      CG321      1    LIG    C26     37     -0.111     12.011   ;
    38     CG2R61      1    LIG    C27     38     -0.019     12.011   ;
    39     CG2R61      1    LIG    C28     39     -0.123     12.011   ;
    40     CG2R61      1    LIG    C29     40     -0.112     12.011   ;
    41     CG2R61      1    LIG    C30     41     -0.116     12.011   ;
    42     CG2R61      1    LIG    C31     42     -0.112     12.011   ;
    43     CG2R61      1    LIG    C32     43     -0.123     12.011   ;
    44       HGA1      1    LIG     HC     44      0.090      1.008   ;
    45       HGA1      1    LIG    HC1     45      0.090      1.008   ;
    46       HGA2      1    LIG    HC2     46      0.090      1.008   ;
    47       HGA2      1    LIG    HC3     47      0.090      1.008   ;
    48       HGA2      1    LIG    HC4     48      0.090      1.008   ;
    49       HGA2      1    LIG    HC5     49      0.090      1.008   ;
    50      HGR61      1    LIG    HC6     50      0.116      1.008   ;
    51      HGR61      1    LIG    HC7     51      0.116      1.008   ;
    52      HGR61      1    LIG    HC8     52      0.116      1.008   ;
    53      HGR61      1    LIG    HC9     53      0.116      1.008   ;
    54       HGA3      1    LIG   HC10     54      0.090      1.008   ;
    55       HGA3      1    LIG   HC11     55      0.090      1.008   ;
    56       HGA3      1    LIG   HC12     56      0.090      1.008   ;
    57      HGR61      1    LIG   HC13     57      0.116      1.008   ;
    58      HGR61      1    LIG   HC14     58      0.116      1.008   ;
    59      HGR61      1    LIG   HC15     59      0.116      1.008   ;
    60      HGR61      1    LIG   HC16     60      0.116      1.008   ;
    61       HGA2      1    LIG   HC17     61      0.090      1.008   ;
    62       HGA2      1    LIG   HC18     62      0.090      1.008   ;
    63       HGA2      1    LIG   HC19     63      0.090      1.008   ;
    64       HGA2      1    LIG   HC20     64      0.090      1.008   ;
    65       HGA3      1    LIG   HC21     65      0.090      1.008   ;
    66       HGA3      1    LIG   HC22     66      0.090      1.008   ;
    67       HGA3      1    LIG   HC23     67      0.090      1.008   ;
    68       HGA2      1    LIG   HC24     68      0.090      1.008   ;
    69       HGA2      1    LIG   HC25     69      0.090      1.008   ;
    70       HGA2      1    LIG   HC26     70      0.090      1.008   ;
    71       HGA2      1    LIG   HC27     71      0.090      1.008   ;
    72       HGA3      1    LIG   HC28     72      0.090      1.008   ;
    73       HGA3      1    LIG   HC29     73      0.090      1.008   ;
    74       HGA3      1    LIG   HC30     74      0.090      1.008   ;
    75       HGA2      1    LIG   HC31     75      0.090      1.008   ;
    76       HGA2      1    LIG   HC32     76      0.090      1.008   ;
    77      HGR61      1    LIG   HC33     77      0.116      1.008   ;
    78      HGR61      1    LIG   HC34     78      0.116      1.008   ;
    79      HGR61      1    LIG   HC35     79      0.116      1.008   ;
    80      HGR61      1    LIG   HC36     80      0.116      1.008   ;
    81      HGR61      1    LIG   HC37     81      0.116      1.008   ;

[ bonds ]
;	ai	  aj funct			  c0			c1			  c2			c3
    1    18	 1 ;       CG311      NG2S1
    1     2	 1 ;       CG311      CG311
    1    37	 1 ;       CG311      CG321
    1    44	 1 ;       CG311       HGA1
    2     3	 1 ;       CG311      CG324
    2    16	 1 ;       CG311      OG311
    2    45	 1 ;       CG311       HGA1
    3     4	 1 ;       CG324      NG3P2
    3    46	 1 ;       CG324       HGA2
    3    47	 1 ;       CG324       HGA2
    4     7	 1 ;       NG3P2      CG324
    4     6	 1 ;       NG3P2       HGP2
    4     5	 1 ;       NG3P2       HGP2
    7     8	 1 ;       CG324     CG2R61
    7    48	 1 ;       CG324       HGA2
    7    49	 1 ;       CG324       HGA2
    8     9	 1 ;      CG2R61     CG2R61
    8    13	 1 ;      CG2R61     CG2R61
    9    10	 1 ;      CG2R61     CG2R61
    9    50	 1 ;      CG2R61      HGR61
   10    14	 1 ;      CG2R61      OG301
   10    11	 1 ;      CG2R61     CG2R61
   11    12	 1 ;      CG2R61     CG2R61
   11    51	 1 ;      CG2R61      HGR61
   12    13	 1 ;      CG2R61     CG2R61
   12    52	 1 ;      CG2R61      HGR61
   13    53	 1 ;      CG2R61      HGR61
   14    15	 1 ;       OG301      CG331
   15    54	 1 ;       CG331       HGA3
   15    55	 1 ;       CG331       HGA3
   15    56	 1 ;       CG331       HGA3
   16    17	 1 ;       OG311       HGP1
   18    19	 1 ;       NG2S1      CG2O1
   18    21	 1 ;       NG2S1       HGP1
   19    22	 1 ;       CG2O1     CG2R61
   19    20	 1 ;       CG2O1      OG2D1
   22    27	 1 ;      CG2R61     CG2R61
   22    23	 1 ;      CG2R61     CG2R61
   23    24	 1 ;      CG2R61     CG2R61
   23    57	 1 ;      CG2R61      HGR61
   24    25	 1 ;      CG2R61     CG2R61
   24    28	 1 ;      CG2R61      CG2O1
   25    26	 1 ;      CG2R61     CG2R61
   25    58	 1 ;      CG2R61      HGR61
   26    27	 1 ;      CG2R61     CG2R61
   26    59	 1 ;      CG2R61      HGR61
   27    60	 1 ;      CG2R61      HGR61
   28    29	 1 ;       CG2O1      OG2D1
   28    30	 1 ;       CG2O1      NG2S0
   30    31	 1 ;       NG2S0      CG321
   30    34	 1 ;       NG2S0      CG321
   31    32	 1 ;       CG321      CG321
   31    61	 1 ;       CG321       HGA2
   31    62	 1 ;       CG321       HGA2
   32    33	 1 ;       CG321      CG331
   32    63	 1 ;       CG321       HGA2
   32    64	 1 ;       CG321       HGA2
   33    65	 1 ;       CG331       HGA3
   33    66	 1 ;       CG331       HGA3
   33    67	 1 ;       CG331       HGA3
   34    35	 1 ;       CG321      CG321
   34    68	 1 ;       CG321       HGA2
   34    69	 1 ;       CG321       HGA2
   35    36	 1 ;       CG321      CG331
   35    70	 1 ;       CG321       HGA2
   35    71	 1 ;       CG321       HGA2
   36    72	 1 ;       CG331       HGA3
   36    73	 1 ;       CG331       HGA3
   36    74	 1 ;       CG331       HGA3
   37    38	 1 ;       CG321     CG2R61
   37    75	 1 ;       CG321       HGA2
   37    76	 1 ;       CG321       HGA2
   38    43	 1 ;      CG2R61     CG2R61
   38    39	 1 ;      CG2R61     CG2R61
   39    40	 1 ;      CG2R61     CG2R61
   39    77	 1 ;      CG2R61      HGR61
   40    41	 1 ;      CG2R61     CG2R61
   40    78	 1 ;      CG2R61      HGR61
   41    42	 1 ;      CG2R61     CG2R61
   41    79	 1 ;      CG2R61      HGR61
   42    43	 1 ;      CG2R61     CG2R61
   42    80	 1 ;      CG2R61      HGR61
   43    81	 1 ;      CG2R61      HGR61

[ pairs ]
;	ai	  aj funct			  c0			c1			  c2			c3
    1     4	 1
    1    46	 1
    1    47	 1
    1    17	 1
    1    22	 1
    1    20	 1
    1    43	 1
    1    39	 1
    2    19	 1
    2    21	 1
    2    38	 1
    2    75	 1
    2    76	 1
    2     7	 1
    2     6	 1
    2     5	 1
    3    18	 1
    3    37	 1
    3    44	 1
    3    17	 1
    3     8	 1
    3    48	 1
    3    49	 1
    4    16	 1
    4    45	 1
    4     9	 1
    4    13	 1
    5    46	 1
    5    47	 1
    5     8	 1
    5    48	 1
    5    49	 1
    6    46	 1
    6    47	 1
    6     8	 1
    6    48	 1
    6    49	 1
    7    46	 1
    7    47	 1
    7    10	 1
    7    50	 1
    7    12	 1
    7    53	 1
    8    14	 1
    8    11	 1
    8    52	 1
    9    48	 1
    9    49	 1
    9    12	 1
    9    53	 1
    9    15	 1
    9    51	 1
   10    13	 1
   10    52	 1
   10    54	 1
   10    55	 1
   10    56	 1
   11    50	 1
   11    15	 1
   11    53	 1
   12    14	 1
   13    48	 1
   13    49	 1
   13    50	 1
   13    51	 1
   14    50	 1
   14    51	 1
   16    18	 1
   16    37	 1
   16    44	 1
   16    46	 1
   16    47	 1
   17    45	 1
   18    45	 1
   18    38	 1
   18    75	 1
   18    76	 1
   18    27	 1
   18    23	 1
   19    37	 1
   19    44	 1
   19    26	 1
   19    60	 1
   19    24	 1
   19    57	 1
   20    21	 1
   20    27	 1
   20    23	 1
   21    37	 1
   21    44	 1
   21    22	 1
   22    25	 1
   22    28	 1
   22    59	 1
   23    26	 1
   23    60	 1
   23    58	 1
   23    29	 1
   23    30	 1
   24    27	 1
   24    59	 1
   24    31	 1
   24    34	 1
   25    57	 1
   25    29	 1
   25    30	 1
   25    60	 1
   26    28	 1
   27    57	 1
   27    58	 1
   28    57	 1
   28    58	 1
   28    32	 1
   28    61	 1
   28    62	 1
   28    35	 1
   28    68	 1
   28    69	 1
   29    31	 1
   29    34	 1
   30    33	 1
   30    63	 1
   30    64	 1
   30    36	 1
   30    70	 1
   30    71	 1
   31    35	 1
   31    68	 1
   31    69	 1
   31    65	 1
   31    66	 1
   31    67	 1
   32    34	 1
   33    61	 1
   33    62	 1
   34    61	 1
   34    62	 1
   34    72	 1
   34    73	 1
   34    74	 1
   36    68	 1
   36    69	 1
   37    45	 1
   37    42	 1
   37    81	 1
   37    40	 1
   37    77	 1
   38    44	 1
   38    41	 1
   38    78	 1
   38    80	 1
   39    75	 1
   39    76	 1
   39    42	 1
   39    81	 1
   39    79	 1
   40    43	 1
   40    80	 1
   41    77	 1
   41    81	 1
   42    78	 1
   43    75	 1
   43    76	 1
   43    77	 1
   43    79	 1
   44    45	 1
   44    75	 1
   44    76	 1
   45    46	 1
   45    47	 1
   51    52	 1
   52    53	 1
   58    59	 1
   59    60	 1
   61    63	 1
   61    64	 1
   62    63	 1
   62    64	 1
   63    65	 1
   63    66	 1
   63    67	 1
   64    65	 1
   64    66	 1
   64    67	 1
   68    70	 1
   68    71	 1
   69    70	 1
   69    71	 1
   70    72	 1
   70    73	 1
   70    74	 1
   71    72	 1
   71    73	 1
   71    74	 1
   77    78	 1
   78    79	 1
   79    80	 1
   80    81	 1

[ angles ]
;	ai	  aj	ak funct			c0			  c1			c2			  c3
   18     1     2	5 ;      NG2S1      CG311      CG311
   18     1    37	5 ;      NG2S1      CG311      CG321
   18     1    44	5 ;      NG2S1      CG311       HGA1
    2     1    37	5 ;      CG311      CG311      CG321
    2     1    44	5 ;      CG311      CG311       HGA1
   37     1    44	5 ;      CG321      CG311       HGA1
    3     2     1	5 ;      CG324      CG311      CG311
    3     2    16	5 ;      CG324      CG311      OG311
    3     2    45	5 ;      CG324      CG311       HGA1
    1     2    16	5 ;      CG311      CG311      OG311
    1     2    45	5 ;      CG311      CG311       HGA1
   16     2    45	5 ;      OG311      CG311       HGA1
    4     3     2	5 ;      NG3P2      CG324      CG311
    4     3    46	5 ;      NG3P2      CG324       HGA2
    4     3    47	5 ;      NG3P2      CG324       HGA2
    2     3    46	5 ;      CG311      CG324       HGA2
    2     3    47	5 ;      CG311      CG324       HGA2
   46     3    47	5 ;       HGA2      CG324       HGA2
    7     4     6	5 ;      CG324      NG3P2       HGP2
    7     4     5	5 ;      CG324      NG3P2       HGP2
    7     4     3	5 ;      CG324      NG3P2      CG324
    6     4     5	5 ;       HGP2      NG3P2       HGP2
    6     4     3	5 ;       HGP2      NG3P2      CG324
    5     4     3	5 ;       HGP2      NG3P2      CG324
    8     7     4	5 ;     CG2R61      CG324      NG3P2
    8     7    48	5 ;     CG2R61      CG324       HGA2
    8     7    49	5 ;     CG2R61      CG324       HGA2
    4     7    48	5 ;      NG3P2      CG324       HGA2
    4     7    49	5 ;      NG3P2      CG324       HGA2
   48     7    49	5 ;       HGA2      CG324       HGA2
    9     8     7	5 ;     CG2R61     CG2R61      CG324
    9     8    13	5 ;     CG2R61     CG2R61     CG2R61
    7     8    13	5 ;      CG324     CG2R61     CG2R61
   10     9     8	5 ;     CG2R61     CG2R61     CG2R61
   10     9    50	5 ;     CG2R61     CG2R61      HGR61
    8     9    50	5 ;     CG2R61     CG2R61      HGR61
   14    10     9	5 ;      OG301     CG2R61     CG2R61
   14    10    11	5 ;      OG301     CG2R61     CG2R61
    9    10    11	5 ;     CG2R61     CG2R61     CG2R61
   10    11    12	5 ;     CG2R61     CG2R61     CG2R61
   10    11    51	5 ;     CG2R61     CG2R61      HGR61
   12    11    51	5 ;     CG2R61     CG2R61      HGR61
   11    12    13	5 ;     CG2R61     CG2R61     CG2R61
   11    12    52	5 ;     CG2R61     CG2R61      HGR61
   13    12    52	5 ;     CG2R61     CG2R61      HGR61
    8    13    12	5 ;     CG2R61     CG2R61     CG2R61
    8    13    53	5 ;     CG2R61     CG2R61      HGR61
   12    13    53	5 ;     CG2R61     CG2R61      HGR61
   15    14    10	5 ;      CG331      OG301     CG2R61
   14    15    54	5 ;      OG301      CG331       HGA3
   14    15    55	5 ;      OG301      CG331       HGA3
   14    15    56	5 ;      OG301      CG331       HGA3
   54    15    55	5 ;       HGA3      CG331       HGA3
   54    15    56	5 ;       HGA3      CG331       HGA3
   55    15    56	5 ;       HGA3      CG331       HGA3
    2    16    17	5 ;      CG311      OG311       HGP1
   19    18    21	5 ;      CG2O1      NG2S1       HGP1
   19    18     1	5 ;      CG2O1      NG2S1      CG311
   21    18     1	5 ;       HGP1      NG2S1      CG311
   22    19    20	5 ;     CG2R61      CG2O1      OG2D1
   22    19    18	5 ;     CG2R61      CG2O1      NG2S1
   20    19    18	5 ;      OG2D1      CG2O1      NG2S1
   27    22    23	5 ;     CG2R61     CG2R61     CG2R61
   27    22    19	5 ;     CG2R61     CG2R61      CG2O1
   23    22    19	5 ;     CG2R61     CG2R61      CG2O1
   24    23    22	5 ;     CG2R61     CG2R61     CG2R61
   24    23    57	5 ;     CG2R61     CG2R61      HGR61
   22    23    57	5 ;     CG2R61     CG2R61      HGR61
   25    24    23	5 ;     CG2R61     CG2R61     CG2R61
   25    24    28	5 ;     CG2R61     CG2R61      CG2O1
   23    24    28	5 ;     CG2R61     CG2R61      CG2O1
   26    25    24	5 ;     CG2R61     CG2R61     CG2R61
   26    25    58	5 ;     CG2R61     CG2R61      HGR61
   24    25    58	5 ;     CG2R61     CG2R61      HGR61
   25    26    27	5 ;     CG2R61     CG2R61     CG2R61
   25    26    59	5 ;     CG2R61     CG2R61      HGR61
   27    26    59	5 ;     CG2R61     CG2R61      HGR61
   26    27    22	5 ;     CG2R61     CG2R61     CG2R61
   26    27    60	5 ;     CG2R61     CG2R61      HGR61
   22    27    60	5 ;     CG2R61     CG2R61      HGR61
   24    28    29	5 ;     CG2R61      CG2O1      OG2D1
   24    28    30	5 ;     CG2R61      CG2O1      NG2S0
   29    28    30	5 ;      OG2D1      CG2O1      NG2S0
   28    30    31	5 ;      CG2O1      NG2S0      CG321
   28    30    34	5 ;      CG2O1      NG2S0      CG321
   31    30    34	5 ;      CG321      NG2S0      CG321
   32    31    30	5 ;      CG321      CG321      NG2S0
   32    31    61	5 ;      CG321      CG321       HGA2
   32    31    62	5 ;      CG321      CG321       HGA2
   30    31    61	5 ;      NG2S0      CG321       HGA2
   30    31    62	5 ;      NG2S0      CG321       HGA2
   61    31    62	5 ;       HGA2      CG321       HGA2
   33    32    31	5 ;      CG331      CG321      CG321
   33    32    63	5 ;      CG331      CG321       HGA2
   33    32    64	5 ;      CG331      CG321       HGA2
   31    32    63	5 ;      CG321      CG321       HGA2
   31    32    64	5 ;      CG321      CG321       HGA2
   63    32    64	5 ;       HGA2      CG321       HGA2
   32    33    65	5 ;      CG321      CG331       HGA3
   32    33    66	5 ;      CG321      CG331       HGA3
   32    33    67	5 ;      CG321      CG331       HGA3
   65    33    66	5 ;       HGA3      CG331       HGA3
   65    33    67	5 ;       HGA3      CG331       HGA3
   66    33    67	5 ;       HGA3      CG331       HGA3
   35    34    30	5 ;      CG321      CG321      NG2S0
   35    34    68	5 ;      CG321      CG321       HGA2
   35    34    69	5 ;      CG321      CG321       HGA2
   30    34    68	5 ;      NG2S0      CG321       HGA2
   30    34    69	5 ;      NG2S0      CG321       HGA2
   68    34    69	5 ;       HGA2      CG321       HGA2
   36    35    34	5 ;      CG331      CG321      CG321
   36    35    70	5 ;      CG331      CG321       HGA2
   36    35    71	5 ;      CG331      CG321       HGA2
   34    35    70	5 ;      CG321      CG321       HGA2
   34    35    71	5 ;      CG321      CG321       HGA2
   70    35    71	5 ;       HGA2      CG321       HGA2
   35    36    72	5 ;      CG321      CG331       HGA3
   35    36    73	5 ;      CG321      CG331       HGA3
   35    36    74	5 ;      CG321      CG331       HGA3
   72    36    73	5 ;       HGA3      CG331       HGA3
   72    36    74	5 ;       HGA3      CG331       HGA3
   73    36    74	5 ;       HGA3      CG331       HGA3
    1    37    38	5 ;      CG311      CG321     CG2R61
    1    37    75	5 ;      CG311      CG321       HGA2
    1    37    76	5 ;      CG311      CG321       HGA2
   38    37    75	5 ;     CG2R61      CG321       HGA2
   38    37    76	5 ;     CG2R61      CG321       HGA2
   75    37    76	5 ;       HGA2      CG321       HGA2
   37    38    43	5 ;      CG321     CG2R61     CG2R61
   37    38    39	5 ;      CG321     CG2R61     CG2R61
   43    38    39	5 ;     CG2R61     CG2R61     CG2R61
   38    39    40	5 ;     CG2R61     CG2R61     CG2R61
   38    39    77	5 ;     CG2R61     CG2R61      HGR61
   40    39    77	5 ;     CG2R61     CG2R61      HGR61
   39    40    41	5 ;     CG2R61     CG2R61     CG2R61
   39    40    78	5 ;     CG2R61     CG2R61      HGR61
   41    40    78	5 ;     CG2R61     CG2R61      HGR61
   42    41    40	5 ;     CG2R61     CG2R61     CG2R61
   42    41    79	5 ;     CG2R61     CG2R61      HGR61
   40    41    79	5 ;     CG2R61     CG2R61      HGR61
   43    42    41	5 ;     CG2R61     CG2R61     CG2R61
   43    42    80	5 ;     CG2R61     CG2R61      HGR61
   41    42    80	5 ;     CG2R61     CG2R61      HGR61
   38    43    42	5 ;     CG2R61     CG2R61     CG2R61
   38    43    81	5 ;     CG2R61     CG2R61      HGR61
   42    43    81	5 ;     CG2R61     CG2R61      HGR61

[ dihedrals ]
;	ai	  aj	ak	  al funct			  c0			c1			  c2			c3			  c4			c5
    2     1    18    19	 9 ;      CG311      CG311      NG2S1      CG2O1
    2     1    18    21	 9 ;      CG311      CG311      NG2S1       HGP1
   37     1    18    19	 9 ;      CG321      CG311      NG2S1      CG2O1
   37     1    18    21	 9 ;      CG321      CG311      NG2S1       HGP1
   44     1    18    19	 9 ;       HGA1      CG311      NG2S1      CG2O1
   44     1    18    21	 9 ;       HGA1      CG311      NG2S1       HGP1
   18     1     2     3	 9 ;      NG2S1      CG311      CG311      CG324
   18     1     2    16	 9 ;      NG2S1      CG311      CG311      OG311
   18     1     2    45	 9 ;      NG2S1      CG311      CG311       HGA1
   37     1     2     3	 9 ;      CG321      CG311      CG311      CG324
   37     1     2    16	 9 ;      CG321      CG311      CG311      OG311
   37     1     2    45	 9 ;      CG321      CG311      CG311       HGA1
   44     1     2     3	 9 ;       HGA1      CG311      CG311      CG324
   44     1     2    16	 9 ;       HGA1      CG311      CG311      OG311
   44     1     2    45	 9 ;       HGA1      CG311      CG311       HGA1
   18     1    37    38	 9 ;      NG2S1      CG311      CG321     CG2R61
   18     1    37    75	 9 ;      NG2S1      CG311      CG321       HGA2
   18     1    37    76	 9 ;      NG2S1      CG311      CG321       HGA2
    2     1    37    38	 9 ;      CG311      CG311      CG321     CG2R61
    2     1    37    75	 9 ;      CG311      CG311      CG321       HGA2
    2     1    37    76	 9 ;      CG311      CG311      CG321       HGA2
   44     1    37    38	 9 ;       HGA1      CG311      CG321     CG2R61
   44     1    37    75	 9 ;       HGA1      CG311      CG321       HGA2
   44     1    37    76	 9 ;       HGA1      CG311      CG321       HGA2
    1     2     3     4	 9 ;      CG311      CG311      CG324      NG3P2
    1     2     3    46	 9 ;      CG311      CG311      CG324       HGA2
    1     2     3    47	 9 ;      CG311      CG311      CG324       HGA2
   16     2     3     4	 9 ;      OG311      CG311      CG324      NG3P2
   16     2     3    46	 9 ;      OG311      CG311      CG324       HGA2
   16     2     3    47	 9 ;      OG311      CG311      CG324       HGA2
   45     2     3     4	 9 ;       HGA1      CG311      CG324      NG3P2
   45     2     3    46	 9 ;       HGA1      CG311      CG324       HGA2
   45     2     3    47	 9 ;       HGA1      CG311      CG324       HGA2
    3     2    16    17	 9 ;      CG324      CG311      OG311       HGP1
    1     2    16    17	 9 ;      CG311      CG311      OG311       HGP1
   45     2    16    17	 9 ;       HGA1      CG311      OG311       HGP1
    2     3     4     7	 9 ;      CG311      CG324      NG3P2      CG324
    2     3     4     6	 9 ;      CG311      CG324      NG3P2       HGP2
    2     3     4     5	 9 ;      CG311      CG324      NG3P2       HGP2
   46     3     4     7	 9 ;       HGA2      CG324      NG3P2      CG324
   46     3     4     6	 9 ;       HGA2      CG324      NG3P2       HGP2
   46     3     4     5	 9 ;       HGA2      CG324      NG3P2       HGP2
   47     3     4     7	 9 ;       HGA2      CG324      NG3P2      CG324
   47     3     4     6	 9 ;       HGA2      CG324      NG3P2       HGP2
   47     3     4     5	 9 ;       HGA2      CG324      NG3P2       HGP2
    6     4     7     8	 9 ;       HGP2      NG3P2      CG324     CG2R61
    6     4     7    48	 9 ;       HGP2      NG3P2      CG324       HGA2
    6     4     7    49	 9 ;       HGP2      NG3P2      CG324       HGA2
    5     4     7     8	 9 ;       HGP2      NG3P2      CG324     CG2R61
    5     4     7    48	 9 ;       HGP2      NG3P2      CG324       HGA2
    5     4     7    49	 9 ;       HGP2      NG3P2      CG324       HGA2
    3     4     7     8	 9 ;      CG324      NG3P2      CG324     CG2R61
    3     4     7    48	 9 ;      CG324      NG3P2      CG324       HGA2
    3     4     7    49	 9 ;      CG324      NG3P2      CG324       HGA2
    4     7     8     9	 9 ;      NG3P2      CG324     CG2R61     CG2R61
    4     7     8    13	 9 ;      NG3P2      CG324     CG2R61     CG2R61
   48     7     8     9	 9 ;       HGA2      CG324     CG2R61     CG2R61
   48     7     8    13	 9 ;       HGA2      CG324     CG2R61     CG2R61
   49     7     8     9	 9 ;       HGA2      CG324     CG2R61     CG2R61
   49     7     8    13	 9 ;       HGA2      CG324     CG2R61     CG2R61
    7     8     9    10	 9 ;      CG324     CG2R61     CG2R61     CG2R61
    7     8     9    50	 9 ;      CG324     CG2R61     CG2R61      HGR61
   13     8     9    10	 9 ;     CG2R61     CG2R61     CG2R61     CG2R61
   13     8     9    50	 9 ;     CG2R61     CG2R61     CG2R61      HGR61
    9     8    13    12	 9 ;     CG2R61     CG2R61     CG2R61     CG2R61
    9     8    13    53	 9 ;     CG2R61     CG2R61     CG2R61      HGR61
    7     8    13    12	 9 ;      CG324     CG2R61     CG2R61     CG2R61
    7     8    13    53	 9 ;      CG324     CG2R61     CG2R61      HGR61
    8     9    10    14	 9 ;     CG2R61     CG2R61     CG2R61      OG301
    8     9    10    11	 9 ;     CG2R61     CG2R61     CG2R61     CG2R61
   50     9    10    14	 9 ;      HGR61     CG2R61     CG2R61      OG301
   50     9    10    11	 9 ;      HGR61     CG2R61     CG2R61     CG2R61
    9    10    14    15	 9 ;     CG2R61     CG2R61      OG301      CG331
   11    10    14    15	 9 ;     CG2R61     CG2R61      OG301      CG331
   14    10    11    12	 9 ;      OG301     CG2R61     CG2R61     CG2R61
   14    10    11    51	 9 ;      OG301     CG2R61     CG2R61      HGR61
    9    10    11    12	 9 ;     CG2R61     CG2R61     CG2R61     CG2R61
    9    10    11    51	 9 ;     CG2R61     CG2R61     CG2R61      HGR61
   10    11    12    13	 9 ;     CG2R61     CG2R61     CG2R61     CG2R61
   10    11    12    52	 9 ;     CG2R61     CG2R61     CG2R61      HGR61
   51    11    12    13	 9 ;      HGR61     CG2R61     CG2R61     CG2R61
   51    11    12    52	 9 ;      HGR61     CG2R61     CG2R61      HGR61
   11    12    13     8	 9 ;     CG2R61     CG2R61     CG2R61     CG2R61
   11    12    13    53	 9 ;     CG2R61     CG2R61     CG2R61      HGR61
   52    12    13     8	 9 ;      HGR61     CG2R61     CG2R61     CG2R61
   52    12    13    53	 9 ;      HGR61     CG2R61     CG2R61      HGR61
   10    14    15    54	 9 ;     CG2R61      OG301      CG331       HGA3
   10    14    15    55	 9 ;     CG2R61      OG301      CG331       HGA3
   10    14    15    56	 9 ;     CG2R61      OG301      CG331       HGA3
   21    18    19    22	 9 ;       HGP1      NG2S1      CG2O1     CG2R61
   21    18    19    20	 9 ;       HGP1      NG2S1      CG2O1      OG2D1
    1    18    19    22	 9 ;      CG311      NG2S1      CG2O1     CG2R61
    1    18    19    20	 9 ;      CG311      NG2S1      CG2O1      OG2D1
   20    19    22    27	 9 ;      OG2D1      CG2O1     CG2R61     CG2R61
   20    19    22    23	 9 ;      OG2D1      CG2O1     CG2R61     CG2R61
   18    19    22    27	 9 ;      NG2S1      CG2O1     CG2R61     CG2R61
   18    19    22    23	 9 ;      NG2S1      CG2O1     CG2R61     CG2R61
   23    22    27    26	 9 ;     CG2R61     CG2R61     CG2R61     CG2R61
   23    22    27    60	 9 ;     CG2R61     CG2R61     CG2R61      HGR61
   19    22    27    26	 9 ;      CG2O1     CG2R61     CG2R61     CG2R61
   19    22    27    60	 9 ;      CG2O1     CG2R61     CG2R61      HGR61
   27    22    23    24	 9 ;     CG2R61     CG2R61     CG2R61     CG2R61
   27    22    23    57	 9 ;     CG2R61     CG2R61     CG2R61      HGR61
   19    22    23    24	 9 ;      CG2O1     CG2R61     CG2R61     CG2R61
   19    22    23    57	 9 ;      CG2O1     CG2R61     CG2R61      HGR61
   22    23    24    25	 9 ;     CG2R61     CG2R61     CG2R61     CG2R61
   22    23    24    28	 9 ;     CG2R61     CG2R61     CG2R61      CG2O1
   57    23    24    25	 9 ;      HGR61     CG2R61     CG2R61     CG2R61
   57    23    24    28	 9 ;      HGR61     CG2R61     CG2R61      CG2O1
   23    24    25    26	 9 ;     CG2R61     CG2R61     CG2R61     CG2R61
   23    24    25    58	 9 ;     CG2R61     CG2R61     CG2R61      HGR61
   28    24    25    26	 9 ;      CG2O1     CG2R61     CG2R61     CG2R61
   28    24    25    58	 9 ;      CG2O1     CG2R61     CG2R61      HGR61
   25    24    28    29	 9 ;     CG2R61     CG2R61      CG2O1      OG2D1
   25    24    28    30	 9 ;     CG2R61     CG2R61      CG2O1      NG2S0
   23    24    28    29	 9 ;     CG2R61     CG2R61      CG2O1      OG2D1
   23    24    28    30	 9 ;     CG2R61     CG2R61      CG2O1      NG2S0
   24    25    26    27	 9 ;     CG2R61     CG2R61     CG2R61     CG2R61
   24    25    26    59	 9 ;     CG2R61     CG2R61     CG2R61      HGR61
   58    25    26    27	 9 ;      HGR61     CG2R61     CG2R61     CG2R61
   58    25    26    59	 9 ;      HGR61     CG2R61     CG2R61      HGR61
   25    26    27    22	 9 ;     CG2R61     CG2R61     CG2R61     CG2R61
   25    26    27    60	 9 ;     CG2R61     CG2R61     CG2R61      HGR61
   59    26    27    22	 9 ;      HGR61     CG2R61     CG2R61     CG2R61
   59    26    27    60	 9 ;      HGR61     CG2R61     CG2R61      HGR61
   24    28    30    31	 9 ;     CG2R61      CG2O1      NG2S0      CG321
   24    28    30    34	 9 ;     CG2R61      CG2O1      NG2S0      CG321
   29    28    30    31	 9 ;      OG2D1      CG2O1      NG2S0      CG321
   29    28    30    34	 9 ;      OG2D1      CG2O1      NG2S0      CG321
   28    30    31    32	 9 ;      CG2O1      NG2S0      CG321      CG321
   28    30    31    61	 9 ;      CG2O1      NG2S0      CG321       HGA2
   28    30    31    62	 9 ;      CG2O1      NG2S0      CG321       HGA2
   34    30    31    32	 9 ;      CG321      NG2S0      CG321      CG321
   34    30    31    61	 9 ;      CG321      NG2S0      CG321       HGA2
   34    30    31    62	 9 ;      CG321      NG2S0      CG321       HGA2
   28    30    34    35	 9 ;      CG2O1      NG2S0      CG321      CG321
   28    30    34    68	 9 ;      CG2O1      NG2S0      CG321       HGA2
   28    30    34    69	 9 ;      CG2O1      NG2S0      CG321       HGA2
   31    30    34    35	 9 ;      CG321      NG2S0      CG321      CG321
   31    30    34    68	 9 ;      CG321      NG2S0      CG321       HGA2
   31    30    34    69	 9 ;      CG321      NG2S0      CG321       HGA2
   30    31    32    33	 9 ;      NG2S0      CG321      CG321      CG331
   30    31    32    63	 9 ;      NG2S0      CG321      CG321       HGA2
   30    31    32    64	 9 ;      NG2S0      CG321      CG321       HGA2
   61    31    32    33	 9 ;       HGA2      CG321      CG321      CG331
   61    31    32    63	 9 ;       HGA2      CG321      CG321       HGA2
   61    31    32    64	 9 ;       HGA2      CG321      CG321       HGA2
   62    31    32    33	 9 ;       HGA2      CG321      CG321      CG331
   62    31    32    63	 9 ;       HGA2      CG321      CG321       HGA2
   62    31    32    64	 9 ;       HGA2      CG321      CG321       HGA2
   31    32    33    65	 9 ;      CG321      CG321      CG331       HGA3
   31    32    33    66	 9 ;      CG321      CG321      CG331       HGA3
   31    32    33    67	 9 ;      CG321      CG321      CG331       HGA3
   63    32    33    65	 9 ;       HGA2      CG321      CG331       HGA3
   63    32    33    66	 9 ;       HGA2      CG321      CG331       HGA3
   63    32    33    67	 9 ;       HGA2      CG321      CG331       HGA3
   64    32    33    65	 9 ;       HGA2      CG321      CG331       HGA3
   64    32    33    66	 9 ;       HGA2      CG321      CG331       HGA3
   64    32    33    67	 9 ;       HGA2      CG321      CG331       HGA3
   30    34    35    36	 9 ;      NG2S0      CG321      CG321      CG331
   30    34    35    70	 9 ;      NG2S0      CG321      CG321       HGA2
   30    34    35    71	 9 ;      NG2S0      CG321      CG321       HGA2
   68    34    35    36	 9 ;       HGA2      CG321      CG321      CG331
   68    34    35    70	 9 ;       HGA2      CG321      CG321       HGA2
   68    34    35    71	 9 ;       HGA2      CG321      CG321       HGA2
   69    34    35    36	 9 ;       HGA2      CG321      CG321      CG331
   69    34    35    70	 9 ;       HGA2      CG321      CG321       HGA2
   69    34    35    71	 9 ;       HGA2      CG321      CG321       HGA2
   34    35    36    72	 9 ;      CG321      CG321      CG331       HGA3
   34    35    36    73	 9 ;      CG321      CG321      CG331       HGA3
   34    35    36    74	 9 ;      CG321      CG321      CG331       HGA3
   70    35    36    72	 9 ;       HGA2      CG321      CG331       HGA3
   70    35    36    73	 9 ;       HGA2      CG321      CG331       HGA3
   70    35    36    74	 9 ;       HGA2      CG321      CG331       HGA3
   71    35    36    72	 9 ;       HGA2      CG321      CG331       HGA3
   71    35    36    73	 9 ;       HGA2      CG321      CG331       HGA3
   71    35    36    74	 9 ;       HGA2      CG321      CG331       HGA3
    1    37    38    43	 9 ;      CG311      CG321     CG2R61     CG2R61
    1    37    38    39	 9 ;      CG311      CG321     CG2R61     CG2R61
   75    37    38    43	 9 ;       HGA2      CG321     CG2R61     CG2R61
   75    37    38    39	 9 ;       HGA2      CG321     CG2R61     CG2R61
   76    37    38    43	 9 ;       HGA2      CG321     CG2R61     CG2R61
   76    37    38    39	 9 ;       HGA2      CG321     CG2R61     CG2R61
   37    38    43    42	 9 ;      CG321     CG2R61     CG2R61     CG2R61
   37    38    43    81	 9 ;      CG321     CG2R61     CG2R61      HGR61
   39    38    43    42	 9 ;     CG2R61     CG2R61     CG2R61     CG2R61
   39    38    43    81	 9 ;     CG2R61     CG2R61     CG2R61      HGR61
   37    38    39    40	 9 ;      CG321     CG2R61     CG2R61     CG2R61
   37    38    39    77	 9 ;      CG321     CG2R61     CG2R61      HGR61
   43    38    39    40	 9 ;     CG2R61     CG2R61     CG2R61     CG2R61
   43    38    39    77	 9 ;     CG2R61     CG2R61     CG2R61      HGR61
   38    39    40    41	 9 ;     CG2R61     CG2R61     CG2R61     CG2R61
   38    39    40    78	 9 ;     CG2R61     CG2R61     CG2R61      HGR61
   77    39    40    41	 9 ;      HGR61     CG2R61     CG2R61     CG2R61
   77    39    40    78	 9 ;      HGR61     CG2R61     CG2R61      HGR61
   39    40    41    42	 9 ;     CG2R61     CG2R61     CG2R61     CG2R61
   39    40    41    79	 9 ;     CG2R61     CG2R61     CG2R61      HGR61
   78    40    41    42	 9 ;      HGR61     CG2R61     CG2R61     CG2R61
   78    40    41    79	 9 ;      HGR61     CG2R61     CG2R61      HGR61
   40    41    42    43	 9 ;     CG2R61     CG2R61     CG2R61     CG2R61
   40    41    42    80	 9 ;     CG2R61     CG2R61     CG2R61      HGR61
   79    41    42    43	 9 ;      HGR61     CG2R61     CG2R61     CG2R61
   79    41    42    80	 9 ;      HGR61     CG2R61     CG2R61      HGR61
   41    42    43    38	 9 ;     CG2R61     CG2R61     CG2R61     CG2R61
   41    42    43    81	 9 ;     CG2R61     CG2R61     CG2R61      HGR61
   80    42    43    38	 9 ;      HGR61     CG2R61     CG2R61     CG2R61
   80    42    43    81	 9 ;      HGR61     CG2R61     CG2R61      HGR61

[ dihedrals ]
;	ai	  aj	ak	  al funct			  c0			c1			  c2			c3
   19    22    18    20	 2
   28    24    30    29	 2

