God Rules Over Mankind, Animals, Cosmos and Such
   77
    1LIG     C1    1  -1.574   0.674  -1.612
    1LIG     C2    2  -1.464   0.782  -1.603
    1LIG     C3    3  -1.337   0.737  -1.672
    1LIG     C4    4  -1.330   0.730  -1.812
    1LIG     C5    5  -1.213   0.687  -1.875
    1LIG     F1    6  -1.210   0.679  -2.009
    1LIG     C6    7  -1.101   0.651  -1.802
    1LIG     C7    8  -1.108   0.659  -1.663
    1LIG     C8    9  -1.224   0.701  -1.598
    1LIG     F2   10  -1.002   0.623  -1.590
    1LIG     N1   11  -1.524   0.538  -1.598
    1LIG     C9   12  -1.526   0.445  -1.702
    1LIG     O1   13  -1.580   0.472  -1.808
    1LIG     H1   14  -1.525   0.498  -1.505
    1LIG    C10   15  -1.434   0.328  -1.687
    1LIG    C11   16  -1.455   0.231  -1.586
    1LIG    C12   17  -1.347   0.166  -1.526
    1LIG    C13   18  -1.219   0.188  -1.582
    1LIG    C14   19  -1.198   0.274  -1.691
    1LIG    C15   20  -1.307   0.342  -1.745
    1LIG    C16   21  -1.060   0.302  -1.744
    1LIG    C17   22  -1.352   0.107  -1.387
    1LIG     O2   23  -1.364  -0.016  -1.384
    1LIG     N2   24  -1.318   0.176  -1.269
    1LIG    C18   25  -1.337   0.318  -1.232
    1LIG    C19   26  -1.213   0.407  -1.222
    1LIG    C20   27  -1.154   0.447  -1.357
    1LIG    C21   28  -1.240   0.097  -1.172
    1LIG    C22   29  -1.101   0.051  -1.216
    1LIG    C23   30  -1.086  -0.100  -1.224
    1LIG    C24   31  -1.699   0.703  -1.521
    1LIG     O3   32  -1.759   0.828  -1.563
    1LIG     H2   33  -1.690   0.898  -1.554
    1LIG    C25   34  -1.811   0.593  -1.535
    1LIG     N3   35  -1.815   0.500  -1.411
    1LIG    C26   36  -1.882   0.551  -1.284
    1LIG     H3   37  -1.860   0.411  -1.438
    1LIG     H4   38  -1.719   0.471  -1.386
    1LIG    C27   39  -2.015   0.627  -1.313
    1LIG     N4   40  -1.998   0.723  -1.427
    1LIG    C28   41  -1.953   0.655  -1.554
    1LIG     H5   42  -1.926   0.794  -1.400
    1LIG     H6   43  -2.085   0.776  -1.442
    1LIG     HC   44  -1.611   0.680  -1.714
    1LIG    HC2   45  -1.442   0.802  -1.498
    1LIG    HC3   46  -1.500   0.874  -1.651
    1LIG    HC1   47  -1.416   0.758  -1.872
    1LIG    HC4   48  -1.010   0.619  -1.851
    1LIG    HC5   49  -1.227   0.705  -1.490
    1LIG    HC6   50  -1.556   0.208  -1.555
    1LIG    HC7   51  -1.135   0.137  -1.539
    1LIG    HC8   52  -1.294   0.406  -1.831
    1LIG    HC9   53  -1.403   0.362  -1.307
    1LIG   HC10   54  -1.388   0.321  -1.136
    1LIG   HC11   55  -1.240   0.497  -1.168
    1LIG   HC12   56  -1.136   0.354  -1.166
    1LIG   HC13   57  -1.298   0.007  -1.149
    1LIG   HC14   58  -1.230   0.155  -1.081
    1LIG   HC15   59  -1.080   0.093  -1.314
    1LIG   HC16   60  -1.028   0.090  -1.145
    1LIG   HC17   61  -1.668   0.711  -1.417
    1LIG   HC18   62  -1.788   0.533  -1.623
    1LIG   HC19   63  -1.904   0.466  -1.220
    1LIG   HC20   64  -1.814   0.618  -1.232
    1LIG   HC21   65  -2.093   0.555  -1.338
    1LIG   HC22   66  -2.045   0.682  -1.223
    1LIG   HC23   67  -2.023   0.576  -1.579
    1LIG   HC24   68  -1.950   0.728  -1.635
    1LIG   HC25   69  -1.002   0.210  -1.745
    1LIG   HC26   70  -1.067   0.341  -1.845
    1LIG   HC27   71  -1.011   0.375  -1.680
    1LIG   HC28   72  -1.108   0.546  -1.348
    1LIG   HC29   73  -1.079   0.375  -1.388
    1LIG   HC30   74  -1.234   0.451  -1.431
    1LIG   HC31   75  -0.985  -0.126  -1.255
    1LIG   HC32   76  -1.157  -0.140  -1.296
    1LIG   HC33   77  -1.106  -0.144  -1.126
   0.00000   0.00000   0.00000
