; Created by cgenff_charmm2gmx.py

[ moleculetype ]
; Name			   nrexcl
LIG				 3

[ atoms ]
;	 nr		  type	resnr residue  atom   cgnr	   charge		mass  typeB    chargeB		massB
; residue	 1 LIG rtp LIG q	qsum
     1      CG311      1    LIG     C1      1     -0.003     12.011   ;
     2      CG321      1    LIG     C2      2     -0.095     12.011   ;
     3     CG2R61      1    LIG     C3      3      0.057     12.011   ;
     4     CG2R61      1    LIG     C4      4     -0.218     12.011   ;
     5     CG2R66      1    LIG     C5      5      0.261     12.011   ;
     6       FGR1      1    LIG     F1      6     -0.210     18.998   ;
     7     CG2R61      1    LIG     C6      7     -0.240     12.011   ;
     8     CG2R66      1    LIG     C7      8      0.261     12.011   ;
     9     CG2R61      1    LIG     C8      9     -0.218     12.011   ;
    10       FGR1      1    LIG     F2     10     -0.210     18.998   ;
    11      NG2S1      1    LIG     N1     11     -0.226     14.007   ;
    12      CG2O1      1    LIG     C9     12      0.302     12.011   ;
    13      OG2D1      1    LIG     O1     13     -0.463     15.999   ;
    14       HGP1      1    LIG     H1     14      0.262      1.008   ;
    15     CG2R61      1    LIG    C10     15     -0.120     12.011   ;
    16     CG2R61      1    LIG    C11     16     -0.003     12.011   ;
    17     CG2R61      1    LIG    C12     17     -0.179     12.011   ;
    18     CG2R61      1    LIG    C13     18     -0.064     12.011   ;
    19     CG2R61      1    LIG    C14     19      0.038     12.011   ;
    20     CG2R61      1    LIG    C15     20     -0.065     12.011   ;
    21      CG331      1    LIG    C16     21     -0.264     12.011   ;
    22      CG2O1      1    LIG    C17     22      0.400     12.011   ;
    23      OG2D1      1    LIG     O2     23     -0.476     15.999   ;
    24      NG2S0      1    LIG     N2     24     -0.418     14.007   ;
    25      CG321      1    LIG    C18     25      0.096     12.011   ;
    26      CG321      1    LIG    C19     26     -0.170     12.011   ;
    27      CG331      1    LIG    C20     27     -0.285     12.011   ;
    28      CG321      1    LIG    C21     28      0.096     12.011   ;
    29      CG321      1    LIG    C22     29     -0.170     12.011   ;
    30      CG331      1    LIG    C23     30     -0.285     12.011   ;
    31      CG311      1    LIG    C24     31      0.234     12.011   ;
    32      OG311      1    LIG     O3     32     -0.598     15.999   ;
    33       HGP1      1    LIG     H2     33      0.422      1.008   ;
    34      CG314      1    LIG    C25     34      0.079     12.011   ;
    35      NG3P2      1    LIG     N3     35     -0.387     14.007   ;
    36      CG324      1    LIG    C26     36      0.127     12.011   ;
    37       HGP2      1    LIG     H3     37      0.351      1.008   ;
    38       HGP2      1    LIG     H4     38      0.351      1.008   ;
    39      CG324      1    LIG    C27     39      0.124     12.011   ;
    40      NG3P2      1    LIG     N4     40     -0.308     14.007   ;
    41      CG324      1    LIG    C28     41      0.121     12.011   ;
    42       HGP2      1    LIG     H5     42      0.336      1.008   ;
    43       HGP2      1    LIG     H6     43      0.336      1.008   ;
    44       HGA1      1    LIG     HC     44      0.090      1.008   ;
    45       HGA2      1    LIG    HC2     45      0.090      1.008   ;
    46       HGA2      1    LIG    HC3     46      0.090      1.008   ;
    47      HGR62      1    LIG    HC1     47      0.174      1.008   ;
    48      HGR62      1    LIG    HC4     48      0.186      1.008   ;
    49      HGR62      1    LIG    HC5     49      0.174      1.008   ;
    50      HGR61      1    LIG    HC6     50      0.116      1.008   ;
    51      HGR61      1    LIG    HC7     51      0.116      1.008   ;
    52      HGR61      1    LIG    HC8     52      0.116      1.008   ;
    53       HGA2      1    LIG    HC9     53      0.090      1.008   ;
    54       HGA2      1    LIG   HC10     54      0.090      1.008   ;
    55       HGA2      1    LIG   HC11     55      0.090      1.008   ;
    56       HGA2      1    LIG   HC12     56      0.090      1.008   ;
    57       HGA2      1    LIG   HC13     57      0.090      1.008   ;
    58       HGA2      1    LIG   HC14     58      0.090      1.008   ;
    59       HGA2      1    LIG   HC15     59      0.090      1.008   ;
    60       HGA2      1    LIG   HC16     60      0.090      1.008   ;
    61       HGA1      1    LIG   HC17     61      0.090      1.008   ;
    62       HGA1      1    LIG   HC18     62      0.109      1.008   ;
    63       HGA2      1    LIG   HC19     63      0.090      1.008   ;
    64       HGA2      1    LIG   HC20     64      0.090      1.008   ;
    65       HGA2      1    LIG   HC21     65      0.090      1.008   ;
    66       HGA2      1    LIG   HC22     66      0.090      1.008   ;
    67       HGA2      1    LIG   HC23     67      0.090      1.008   ;
    68       HGA2      1    LIG   HC24     68      0.090      1.008   ;
    69       HGA3      1    LIG   HC25     69      0.090      1.008   ;
    70       HGA3      1    LIG   HC26     70      0.090      1.008   ;
    71       HGA3      1    LIG   HC27     71      0.090      1.008   ;
    72       HGA3      1    LIG   HC28     72      0.090      1.008   ;
    73       HGA3      1    LIG   HC29     73      0.090      1.008   ;
    74       HGA3      1    LIG   HC30     74      0.090      1.008   ;
    75       HGA3      1    LIG   HC31     75      0.090      1.008   ;
    76       HGA3      1    LIG   HC32     76      0.090      1.008   ;
    77       HGA3      1    LIG   HC33     77      0.090      1.008   ;

[ bonds ]
;	ai	  aj funct			  c0			c1			  c2			c3
    1     2	 1 ;       CG311      CG321
    1    11	 1 ;       CG311      NG2S1
    1    31	 1 ;       CG311      CG311
    1    44	 1 ;       CG311       HGA1
    2     3	 1 ;       CG321     CG2R61
    2    45	 1 ;       CG321       HGA2
    2    46	 1 ;       CG321       HGA2
    3     4	 1 ;      CG2R61     CG2R61
    3     9	 1 ;      CG2R61     CG2R61
    4     5	 1 ;      CG2R61     CG2R66
    4    47	 1 ;      CG2R61      HGR62
    5     6	 1 ;      CG2R66       FGR1
    5     7	 1 ;      CG2R66     CG2R61
    7     8	 1 ;      CG2R61     CG2R66
    7    48	 1 ;      CG2R61      HGR62
    8    10	 1 ;      CG2R66       FGR1
    8     9	 1 ;      CG2R66     CG2R61
    9    49	 1 ;      CG2R61      HGR62
   11    12	 1 ;       NG2S1      CG2O1
   11    14	 1 ;       NG2S1       HGP1
   12    15	 1 ;       CG2O1     CG2R61
   12    13	 1 ;       CG2O1      OG2D1
   15    20	 1 ;      CG2R61     CG2R61
   15    16	 1 ;      CG2R61     CG2R61
   16    17	 1 ;      CG2R61     CG2R61
   16    50	 1 ;      CG2R61      HGR61
   17    18	 1 ;      CG2R61     CG2R61
   17    22	 1 ;      CG2R61      CG2O1
   18    19	 1 ;      CG2R61     CG2R61
   18    51	 1 ;      CG2R61      HGR61
   19    21	 1 ;      CG2R61      CG331
   19    20	 1 ;      CG2R61     CG2R61
   20    52	 1 ;      CG2R61      HGR61
   21    69	 1 ;       CG331       HGA3
   21    70	 1 ;       CG331       HGA3
   21    71	 1 ;       CG331       HGA3
   22    23	 1 ;       CG2O1      OG2D1
   22    24	 1 ;       CG2O1      NG2S0
   24    28	 1 ;       NG2S0      CG321
   24    25	 1 ;       NG2S0      CG321
   25    26	 1 ;       CG321      CG321
   25    53	 1 ;       CG321       HGA2
   25    54	 1 ;       CG321       HGA2
   26    27	 1 ;       CG321      CG331
   26    55	 1 ;       CG321       HGA2
   26    56	 1 ;       CG321       HGA2
   27    72	 1 ;       CG331       HGA3
   27    73	 1 ;       CG331       HGA3
   27    74	 1 ;       CG331       HGA3
   28    29	 1 ;       CG321      CG321
   28    57	 1 ;       CG321       HGA2
   28    58	 1 ;       CG321       HGA2
   29    30	 1 ;       CG321      CG331
   29    59	 1 ;       CG321       HGA2
   29    60	 1 ;       CG321       HGA2
   30    75	 1 ;       CG331       HGA3
   30    76	 1 ;       CG331       HGA3
   30    77	 1 ;       CG331       HGA3
   31    32	 1 ;       CG311      OG311
   31    34	 1 ;       CG311      CG314
   31    61	 1 ;       CG311       HGA1
   32    33	 1 ;       OG311       HGP1
   34    35	 1 ;       CG314      NG3P2
   34    41	 1 ;       CG314      CG324
   34    62	 1 ;       CG314       HGA1
   35    38	 1 ;       NG3P2       HGP2
   35    37	 1 ;       NG3P2       HGP2
   35    36	 1 ;       NG3P2      CG324
   36    39	 1 ;       CG324      CG324
   36    63	 1 ;       CG324       HGA2
   36    64	 1 ;       CG324       HGA2
   39    40	 1 ;       CG324      NG3P2
   39    65	 1 ;       CG324       HGA2
   39    66	 1 ;       CG324       HGA2
   40    41	 1 ;       NG3P2      CG324
   40    42	 1 ;       NG3P2       HGP2
   40    43	 1 ;       NG3P2       HGP2
   41    67	 1 ;       CG324       HGA2
   41    68	 1 ;       CG324       HGA2

[ pairs ]
;	ai	  aj funct			  c0			c1			  c2			c3
    1     4	 1
    1     9	 1
    1    15	 1
    1    13	 1
    1    33	 1
    1    35	 1
    1    41	 1
    1    62	 1
    2    12	 1
    2    14	 1
    2    32	 1
    2    34	 1
    2    61	 1
    2     5	 1
    2    47	 1
    2     8	 1
    2    49	 1
    3    11	 1
    3    31	 1
    3    44	 1
    3     6	 1
    3     7	 1
    3    10	 1
    4    45	 1
    4    46	 1
    4     8	 1
    4    49	 1
    4    48	 1
    5     9	 1
    5    10	 1
    6    47	 1
    6     8	 1
    6    48	 1
    7    47	 1
    7    49	 1
    9    45	 1
    9    46	 1
    9    47	 1
    9    48	 1
   10    48	 1
   10    49	 1
   11    45	 1
   11    46	 1
   11    32	 1
   11    34	 1
   11    61	 1
   11    20	 1
   11    16	 1
   12    31	 1
   12    44	 1
   12    19	 1
   12    52	 1
   12    17	 1
   12    50	 1
   13    14	 1
   13    20	 1
   13    16	 1
   14    31	 1
   14    44	 1
   14    15	 1
   15    18	 1
   15    22	 1
   15    21	 1
   16    19	 1
   16    52	 1
   16    51	 1
   16    23	 1
   16    24	 1
   17    20	 1
   17    21	 1
   17    28	 1
   17    25	 1
   18    50	 1
   18    23	 1
   18    24	 1
   18    69	 1
   18    70	 1
   18    71	 1
   18    52	 1
   19    22	 1
   20    50	 1
   20    51	 1
   20    69	 1
   20    70	 1
   20    71	 1
   21    51	 1
   21    52	 1
   22    50	 1
   22    51	 1
   22    29	 1
   22    57	 1
   22    58	 1
   22    26	 1
   22    53	 1
   22    54	 1
   23    28	 1
   23    25	 1
   24    27	 1
   24    55	 1
   24    56	 1
   24    30	 1
   24    59	 1
   24    60	 1
   25    29	 1
   25    57	 1
   25    58	 1
   25    72	 1
   25    73	 1
   25    74	 1
   26    28	 1
   27    53	 1
   27    54	 1
   28    53	 1
   28    54	 1
   28    75	 1
   28    76	 1
   28    77	 1
   30    57	 1
   30    58	 1
   31    45	 1
   31    46	 1
   31    38	 1
   31    37	 1
   31    36	 1
   31    40	 1
   31    67	 1
   31    68	 1
   32    44	 1
   32    35	 1
   32    41	 1
   32    62	 1
   33    34	 1
   33    61	 1
   34    44	 1
   34    39	 1
   34    63	 1
   34    64	 1
   34    42	 1
   34    43	 1
   35    61	 1
   35    40	 1
   35    67	 1
   35    68	 1
   35    65	 1
   35    66	 1
   36    41	 1
   36    62	 1
   36    42	 1
   36    43	 1
   37    41	 1
   37    62	 1
   37    39	 1
   37    63	 1
   37    64	 1
   38    41	 1
   38    62	 1
   38    39	 1
   38    63	 1
   38    64	 1
   39    67	 1
   39    68	 1
   40    62	 1
   40    63	 1
   40    64	 1
   41    61	 1
   41    65	 1
   41    66	 1
   42    65	 1
   42    66	 1
   42    67	 1
   42    68	 1
   43    65	 1
   43    66	 1
   43    67	 1
   43    68	 1
   44    45	 1
   44    46	 1
   44    61	 1
   53    55	 1
   53    56	 1
   54    55	 1
   54    56	 1
   55    72	 1
   55    73	 1
   55    74	 1
   56    72	 1
   56    73	 1
   56    74	 1
   57    59	 1
   57    60	 1
   58    59	 1
   58    60	 1
   59    75	 1
   59    76	 1
   59    77	 1
   60    75	 1
   60    76	 1
   60    77	 1
   61    62	 1
   62    67	 1
   62    68	 1
   63    65	 1
   63    66	 1
   64    65	 1
   64    66	 1

[ angles ]
;	ai	  aj	ak funct			c0			  c1			c2			  c3
    2     1    11	5 ;      CG321      CG311      NG2S1
    2     1    31	5 ;      CG321      CG311      CG311
    2     1    44	5 ;      CG321      CG311       HGA1
   11     1    31	5 ;      NG2S1      CG311      CG311
   11     1    44	5 ;      NG2S1      CG311       HGA1
   31     1    44	5 ;      CG311      CG311       HGA1
    3     2     1	5 ;     CG2R61      CG321      CG311
    3     2    45	5 ;     CG2R61      CG321       HGA2
    3     2    46	5 ;     CG2R61      CG321       HGA2
    1     2    45	5 ;      CG311      CG321       HGA2
    1     2    46	5 ;      CG311      CG321       HGA2
   45     2    46	5 ;       HGA2      CG321       HGA2
    4     3     9	5 ;     CG2R61     CG2R61     CG2R61
    4     3     2	5 ;     CG2R61     CG2R61      CG321
    9     3     2	5 ;     CG2R61     CG2R61      CG321
    5     4     3	5 ;     CG2R66     CG2R61     CG2R61
    5     4    47	5 ;     CG2R66     CG2R61      HGR62
    3     4    47	5 ;     CG2R61     CG2R61      HGR62
    6     5     7	5 ;       FGR1     CG2R66     CG2R61
    6     5     4	5 ;       FGR1     CG2R66     CG2R61
    7     5     4	5 ;     CG2R61     CG2R66     CG2R61
    5     7     8	5 ;     CG2R66     CG2R61     CG2R66
    5     7    48	5 ;     CG2R66     CG2R61      HGR62
    8     7    48	5 ;     CG2R66     CG2R61      HGR62
    7     8    10	5 ;     CG2R61     CG2R66       FGR1
    7     8     9	5 ;     CG2R61     CG2R66     CG2R61
   10     8     9	5 ;       FGR1     CG2R66     CG2R61
    8     9     3	5 ;     CG2R66     CG2R61     CG2R61
    8     9    49	5 ;     CG2R66     CG2R61      HGR62
    3     9    49	5 ;     CG2R61     CG2R61      HGR62
   12    11     1	5 ;      CG2O1      NG2S1      CG311
   12    11    14	5 ;      CG2O1      NG2S1       HGP1
    1    11    14	5 ;      CG311      NG2S1       HGP1
   15    12    13	5 ;     CG2R61      CG2O1      OG2D1
   15    12    11	5 ;     CG2R61      CG2O1      NG2S1
   13    12    11	5 ;      OG2D1      CG2O1      NG2S1
   20    15    16	5 ;     CG2R61     CG2R61     CG2R61
   20    15    12	5 ;     CG2R61     CG2R61      CG2O1
   16    15    12	5 ;     CG2R61     CG2R61      CG2O1
   15    16    17	5 ;     CG2R61     CG2R61     CG2R61
   15    16    50	5 ;     CG2R61     CG2R61      HGR61
   17    16    50	5 ;     CG2R61     CG2R61      HGR61
   18    17    16	5 ;     CG2R61     CG2R61     CG2R61
   18    17    22	5 ;     CG2R61     CG2R61      CG2O1
   16    17    22	5 ;     CG2R61     CG2R61      CG2O1
   19    18    17	5 ;     CG2R61     CG2R61     CG2R61
   19    18    51	5 ;     CG2R61     CG2R61      HGR61
   17    18    51	5 ;     CG2R61     CG2R61      HGR61
   21    19    20	5 ;      CG331     CG2R61     CG2R61
   21    19    18	5 ;      CG331     CG2R61     CG2R61
   20    19    18	5 ;     CG2R61     CG2R61     CG2R61
   19    20    15	5 ;     CG2R61     CG2R61     CG2R61
   19    20    52	5 ;     CG2R61     CG2R61      HGR61
   15    20    52	5 ;     CG2R61     CG2R61      HGR61
   19    21    69	5 ;     CG2R61      CG331       HGA3
   19    21    70	5 ;     CG2R61      CG331       HGA3
   19    21    71	5 ;     CG2R61      CG331       HGA3
   69    21    70	5 ;       HGA3      CG331       HGA3
   69    21    71	5 ;       HGA3      CG331       HGA3
   70    21    71	5 ;       HGA3      CG331       HGA3
   17    22    23	5 ;     CG2R61      CG2O1      OG2D1
   17    22    24	5 ;     CG2R61      CG2O1      NG2S0
   23    22    24	5 ;      OG2D1      CG2O1      NG2S0
   22    24    28	5 ;      CG2O1      NG2S0      CG321
   22    24    25	5 ;      CG2O1      NG2S0      CG321
   28    24    25	5 ;      CG321      NG2S0      CG321
   26    25    24	5 ;      CG321      CG321      NG2S0
   26    25    53	5 ;      CG321      CG321       HGA2
   26    25    54	5 ;      CG321      CG321       HGA2
   24    25    53	5 ;      NG2S0      CG321       HGA2
   24    25    54	5 ;      NG2S0      CG321       HGA2
   53    25    54	5 ;       HGA2      CG321       HGA2
   27    26    25	5 ;      CG331      CG321      CG321
   27    26    55	5 ;      CG331      CG321       HGA2
   27    26    56	5 ;      CG331      CG321       HGA2
   25    26    55	5 ;      CG321      CG321       HGA2
   25    26    56	5 ;      CG321      CG321       HGA2
   55    26    56	5 ;       HGA2      CG321       HGA2
   26    27    72	5 ;      CG321      CG331       HGA3
   26    27    73	5 ;      CG321      CG331       HGA3
   26    27    74	5 ;      CG321      CG331       HGA3
   72    27    73	5 ;       HGA3      CG331       HGA3
   72    27    74	5 ;       HGA3      CG331       HGA3
   73    27    74	5 ;       HGA3      CG331       HGA3
   29    28    24	5 ;      CG321      CG321      NG2S0
   29    28    57	5 ;      CG321      CG321       HGA2
   29    28    58	5 ;      CG321      CG321       HGA2
   24    28    57	5 ;      NG2S0      CG321       HGA2
   24    28    58	5 ;      NG2S0      CG321       HGA2
   57    28    58	5 ;       HGA2      CG321       HGA2
   30    29    28	5 ;      CG331      CG321      CG321
   30    29    59	5 ;      CG331      CG321       HGA2
   30    29    60	5 ;      CG331      CG321       HGA2
   28    29    59	5 ;      CG321      CG321       HGA2
   28    29    60	5 ;      CG321      CG321       HGA2
   59    29    60	5 ;       HGA2      CG321       HGA2
   29    30    75	5 ;      CG321      CG331       HGA3
   29    30    76	5 ;      CG321      CG331       HGA3
   29    30    77	5 ;      CG321      CG331       HGA3
   75    30    76	5 ;       HGA3      CG331       HGA3
   75    30    77	5 ;       HGA3      CG331       HGA3
   76    30    77	5 ;       HGA3      CG331       HGA3
    1    31    32	5 ;      CG311      CG311      OG311
    1    31    34	5 ;      CG311      CG311      CG314
    1    31    61	5 ;      CG311      CG311       HGA1
   32    31    34	5 ;      OG311      CG311      CG314
   32    31    61	5 ;      OG311      CG311       HGA1
   34    31    61	5 ;      CG314      CG311       HGA1
   31    32    33	5 ;      CG311      OG311       HGP1
   31    34    35	5 ;      CG311      CG314      NG3P2
   31    34    41	5 ;      CG311      CG314      CG324
   31    34    62	5 ;      CG311      CG314       HGA1
   35    34    41	5 ;      NG3P2      CG314      CG324
   35    34    62	5 ;      NG3P2      CG314       HGA1
   41    34    62	5 ;      CG324      CG314       HGA1
   34    35    38	5 ;      CG314      NG3P2       HGP2
   34    35    37	5 ;      CG314      NG3P2       HGP2
   34    35    36	5 ;      CG314      NG3P2      CG324
   38    35    37	5 ;       HGP2      NG3P2       HGP2
   38    35    36	5 ;       HGP2      NG3P2      CG324
   37    35    36	5 ;       HGP2      NG3P2      CG324
   35    36    39	5 ;      NG3P2      CG324      CG324
   35    36    63	5 ;      NG3P2      CG324       HGA2
   35    36    64	5 ;      NG3P2      CG324       HGA2
   39    36    63	5 ;      CG324      CG324       HGA2
   39    36    64	5 ;      CG324      CG324       HGA2
   63    36    64	5 ;       HGA2      CG324       HGA2
   36    39    40	5 ;      CG324      CG324      NG3P2
   36    39    65	5 ;      CG324      CG324       HGA2
   36    39    66	5 ;      CG324      CG324       HGA2
   40    39    65	5 ;      NG3P2      CG324       HGA2
   40    39    66	5 ;      NG3P2      CG324       HGA2
   65    39    66	5 ;       HGA2      CG324       HGA2
   41    40    42	5 ;      CG324      NG3P2       HGP2
   41    40    43	5 ;      CG324      NG3P2       HGP2
   41    40    39	5 ;      CG324      NG3P2      CG324
   42    40    43	5 ;       HGP2      NG3P2       HGP2
   42    40    39	5 ;       HGP2      NG3P2      CG324
   43    40    39	5 ;       HGP2      NG3P2      CG324
   34    41    40	5 ;      CG314      CG324      NG3P2
   34    41    67	5 ;      CG314      CG324       HGA2
   34    41    68	5 ;      CG314      CG324       HGA2
   40    41    67	5 ;      NG3P2      CG324       HGA2
   40    41    68	5 ;      NG3P2      CG324       HGA2
   67    41    68	5 ;       HGA2      CG324       HGA2

[ dihedrals ]
;	ai	  aj	ak	  al funct			  c0			c1			  c2			c3			  c4			c5
   11     1     2     3	 9 ;      NG2S1      CG311      CG321     CG2R61
   11     1     2    45	 9 ;      NG2S1      CG311      CG321       HGA2
   11     1     2    46	 9 ;      NG2S1      CG311      CG321       HGA2
   31     1     2     3	 9 ;      CG311      CG311      CG321     CG2R61
   31     1     2    45	 9 ;      CG311      CG311      CG321       HGA2
   31     1     2    46	 9 ;      CG311      CG311      CG321       HGA2
   44     1     2     3	 9 ;       HGA1      CG311      CG321     CG2R61
   44     1     2    45	 9 ;       HGA1      CG311      CG321       HGA2
   44     1     2    46	 9 ;       HGA1      CG311      CG321       HGA2
    2     1    11    12	 9 ;      CG321      CG311      NG2S1      CG2O1
    2     1    11    14	 9 ;      CG321      CG311      NG2S1       HGP1
   31     1    11    12	 9 ;      CG311      CG311      NG2S1      CG2O1
   31     1    11    14	 9 ;      CG311      CG311      NG2S1       HGP1
   44     1    11    12	 9 ;       HGA1      CG311      NG2S1      CG2O1
   44     1    11    14	 9 ;       HGA1      CG311      NG2S1       HGP1
    2     1    31    32	 9 ;      CG321      CG311      CG311      OG311
    2     1    31    34	 9 ;      CG321      CG311      CG311      CG314
    2     1    31    61	 9 ;      CG321      CG311      CG311       HGA1
   11     1    31    32	 9 ;      NG2S1      CG311      CG311      OG311
   11     1    31    34	 9 ;      NG2S1      CG311      CG311      CG314
   11     1    31    61	 9 ;      NG2S1      CG311      CG311       HGA1
   44     1    31    32	 9 ;       HGA1      CG311      CG311      OG311
   44     1    31    34	 9 ;       HGA1      CG311      CG311      CG314
   44     1    31    61	 9 ;       HGA1      CG311      CG311       HGA1
    1     2     3     4	 9 ;      CG311      CG321     CG2R61     CG2R61
    1     2     3     9	 9 ;      CG311      CG321     CG2R61     CG2R61
   45     2     3     4	 9 ;       HGA2      CG321     CG2R61     CG2R61
   45     2     3     9	 9 ;       HGA2      CG321     CG2R61     CG2R61
   46     2     3     4	 9 ;       HGA2      CG321     CG2R61     CG2R61
   46     2     3     9	 9 ;       HGA2      CG321     CG2R61     CG2R61
    9     3     4     5	 9 ;     CG2R61     CG2R61     CG2R61     CG2R66
    9     3     4    47	 9 ;     CG2R61     CG2R61     CG2R61      HGR62
    2     3     4     5	 9 ;      CG321     CG2R61     CG2R61     CG2R66
    2     3     4    47	 9 ;      CG321     CG2R61     CG2R61      HGR62
    4     3     9     8	 9 ;     CG2R61     CG2R61     CG2R61     CG2R66
    4     3     9    49	 9 ;     CG2R61     CG2R61     CG2R61      HGR62
    2     3     9     8	 9 ;      CG321     CG2R61     CG2R61     CG2R66
    2     3     9    49	 9 ;      CG321     CG2R61     CG2R61      HGR62
    3     4     5     6	 9 ;     CG2R61     CG2R61     CG2R66       FGR1
    3     4     5     7	 9 ;     CG2R61     CG2R61     CG2R66     CG2R61
   47     4     5     6	 9 ;      HGR62     CG2R61     CG2R66       FGR1
   47     4     5     7	 9 ;      HGR62     CG2R61     CG2R66     CG2R61
    6     5     7     8	 9 ;       FGR1     CG2R66     CG2R61     CG2R66
    6     5     7    48	 9 ;       FGR1     CG2R66     CG2R61      HGR62
    4     5     7     8	 9 ;     CG2R61     CG2R66     CG2R61     CG2R66
    4     5     7    48	 9 ;     CG2R61     CG2R66     CG2R61      HGR62
    5     7     8    10	 9 ;     CG2R66     CG2R61     CG2R66       FGR1
    5     7     8     9	 9 ;     CG2R66     CG2R61     CG2R66     CG2R61
   48     7     8    10	 9 ;      HGR62     CG2R61     CG2R66       FGR1
   48     7     8     9	 9 ;      HGR62     CG2R61     CG2R66     CG2R61
    7     8     9     3	 9 ;     CG2R61     CG2R66     CG2R61     CG2R61
    7     8     9    49	 9 ;     CG2R61     CG2R66     CG2R61      HGR62
   10     8     9     3	 9 ;       FGR1     CG2R66     CG2R61     CG2R61
   10     8     9    49	 9 ;       FGR1     CG2R66     CG2R61      HGR62
    1    11    12    15	 9 ;      CG311      NG2S1      CG2O1     CG2R61
    1    11    12    13	 9 ;      CG311      NG2S1      CG2O1      OG2D1
   14    11    12    15	 9 ;       HGP1      NG2S1      CG2O1     CG2R61
   14    11    12    13	 9 ;       HGP1      NG2S1      CG2O1      OG2D1
   13    12    15    20	 9 ;      OG2D1      CG2O1     CG2R61     CG2R61
   13    12    15    16	 9 ;      OG2D1      CG2O1     CG2R61     CG2R61
   11    12    15    20	 9 ;      NG2S1      CG2O1     CG2R61     CG2R61
   11    12    15    16	 9 ;      NG2S1      CG2O1     CG2R61     CG2R61
   16    15    20    19	 9 ;     CG2R61     CG2R61     CG2R61     CG2R61
   16    15    20    52	 9 ;     CG2R61     CG2R61     CG2R61      HGR61
   12    15    20    19	 9 ;      CG2O1     CG2R61     CG2R61     CG2R61
   12    15    20    52	 9 ;      CG2O1     CG2R61     CG2R61      HGR61
   20    15    16    17	 9 ;     CG2R61     CG2R61     CG2R61     CG2R61
   20    15    16    50	 9 ;     CG2R61     CG2R61     CG2R61      HGR61
   12    15    16    17	 9 ;      CG2O1     CG2R61     CG2R61     CG2R61
   12    15    16    50	 9 ;      CG2O1     CG2R61     CG2R61      HGR61
   15    16    17    18	 9 ;     CG2R61     CG2R61     CG2R61     CG2R61
   15    16    17    22	 9 ;     CG2R61     CG2R61     CG2R61      CG2O1
   50    16    17    18	 9 ;      HGR61     CG2R61     CG2R61     CG2R61
   50    16    17    22	 9 ;      HGR61     CG2R61     CG2R61      CG2O1
   16    17    18    19	 9 ;     CG2R61     CG2R61     CG2R61     CG2R61
   16    17    18    51	 9 ;     CG2R61     CG2R61     CG2R61      HGR61
   22    17    18    19	 9 ;      CG2O1     CG2R61     CG2R61     CG2R61
   22    17    18    51	 9 ;      CG2O1     CG2R61     CG2R61      HGR61
   18    17    22    23	 9 ;     CG2R61     CG2R61      CG2O1      OG2D1
   18    17    22    24	 9 ;     CG2R61     CG2R61      CG2O1      NG2S0
   16    17    22    23	 9 ;     CG2R61     CG2R61      CG2O1      OG2D1
   16    17    22    24	 9 ;     CG2R61     CG2R61      CG2O1      NG2S0
   17    18    19    21	 9 ;     CG2R61     CG2R61     CG2R61      CG331
   17    18    19    20	 9 ;     CG2R61     CG2R61     CG2R61     CG2R61
   51    18    19    21	 9 ;      HGR61     CG2R61     CG2R61      CG331
   51    18    19    20	 9 ;      HGR61     CG2R61     CG2R61     CG2R61
   20    19    21    69	 9 ;     CG2R61     CG2R61      CG331       HGA3
   20    19    21    70	 9 ;     CG2R61     CG2R61      CG331       HGA3
   20    19    21    71	 9 ;     CG2R61     CG2R61      CG331       HGA3
   18    19    21    69	 9 ;     CG2R61     CG2R61      CG331       HGA3
   18    19    21    70	 9 ;     CG2R61     CG2R61      CG331       HGA3
   18    19    21    71	 9 ;     CG2R61     CG2R61      CG331       HGA3
   21    19    20    15	 9 ;      CG331     CG2R61     CG2R61     CG2R61
   21    19    20    52	 9 ;      CG331     CG2R61     CG2R61      HGR61
   18    19    20    15	 9 ;     CG2R61     CG2R61     CG2R61     CG2R61
   18    19    20    52	 9 ;     CG2R61     CG2R61     CG2R61      HGR61
   17    22    24    28	 9 ;     CG2R61      CG2O1      NG2S0      CG321
   17    22    24    25	 9 ;     CG2R61      CG2O1      NG2S0      CG321
   23    22    24    28	 9 ;      OG2D1      CG2O1      NG2S0      CG321
   23    22    24    25	 9 ;      OG2D1      CG2O1      NG2S0      CG321
   22    24    28    29	 9 ;      CG2O1      NG2S0      CG321      CG321
   22    24    28    57	 9 ;      CG2O1      NG2S0      CG321       HGA2
   22    24    28    58	 9 ;      CG2O1      NG2S0      CG321       HGA2
   25    24    28    29	 9 ;      CG321      NG2S0      CG321      CG321
   25    24    28    57	 9 ;      CG321      NG2S0      CG321       HGA2
   25    24    28    58	 9 ;      CG321      NG2S0      CG321       HGA2
   22    24    25    26	 9 ;      CG2O1      NG2S0      CG321      CG321
   22    24    25    53	 9 ;      CG2O1      NG2S0      CG321       HGA2
   22    24    25    54	 9 ;      CG2O1      NG2S0      CG321       HGA2
   28    24    25    26	 9 ;      CG321      NG2S0      CG321      CG321
   28    24    25    53	 9 ;      CG321      NG2S0      CG321       HGA2
   28    24    25    54	 9 ;      CG321      NG2S0      CG321       HGA2
   24    25    26    27	 9 ;      NG2S0      CG321      CG321      CG331
   24    25    26    55	 9 ;      NG2S0      CG321      CG321       HGA2
   24    25    26    56	 9 ;      NG2S0      CG321      CG321       HGA2
   53    25    26    27	 9 ;       HGA2      CG321      CG321      CG331
   53    25    26    55	 9 ;       HGA2      CG321      CG321       HGA2
   53    25    26    56	 9 ;       HGA2      CG321      CG321       HGA2
   54    25    26    27	 9 ;       HGA2      CG321      CG321      CG331
   54    25    26    55	 9 ;       HGA2      CG321      CG321       HGA2
   54    25    26    56	 9 ;       HGA2      CG321      CG321       HGA2
   25    26    27    72	 9 ;      CG321      CG321      CG331       HGA3
   25    26    27    73	 9 ;      CG321      CG321      CG331       HGA3
   25    26    27    74	 9 ;      CG321      CG321      CG331       HGA3
   55    26    27    72	 9 ;       HGA2      CG321      CG331       HGA3
   55    26    27    73	 9 ;       HGA2      CG321      CG331       HGA3
   55    26    27    74	 9 ;       HGA2      CG321      CG331       HGA3
   56    26    27    72	 9 ;       HGA2      CG321      CG331       HGA3
   56    26    27    73	 9 ;       HGA2      CG321      CG331       HGA3
   56    26    27    74	 9 ;       HGA2      CG321      CG331       HGA3
   24    28    29    30	 9 ;      NG2S0      CG321      CG321      CG331
   24    28    29    59	 9 ;      NG2S0      CG321      CG321       HGA2
   24    28    29    60	 9 ;      NG2S0      CG321      CG321       HGA2
   57    28    29    30	 9 ;       HGA2      CG321      CG321      CG331
   57    28    29    59	 9 ;       HGA2      CG321      CG321       HGA2
   57    28    29    60	 9 ;       HGA2      CG321      CG321       HGA2
   58    28    29    30	 9 ;       HGA2      CG321      CG321      CG331
   58    28    29    59	 9 ;       HGA2      CG321      CG321       HGA2
   58    28    29    60	 9 ;       HGA2      CG321      CG321       HGA2
   28    29    30    75	 9 ;      CG321      CG321      CG331       HGA3
   28    29    30    76	 9 ;      CG321      CG321      CG331       HGA3
   28    29    30    77	 9 ;      CG321      CG321      CG331       HGA3
   59    29    30    75	 9 ;       HGA2      CG321      CG331       HGA3
   59    29    30    76	 9 ;       HGA2      CG321      CG331       HGA3
   59    29    30    77	 9 ;       HGA2      CG321      CG331       HGA3
   60    29    30    75	 9 ;       HGA2      CG321      CG331       HGA3
   60    29    30    76	 9 ;       HGA2      CG321      CG331       HGA3
   60    29    30    77	 9 ;       HGA2      CG321      CG331       HGA3
    1    31    32    33	 9 ;      CG311      CG311      OG311       HGP1
   34    31    32    33	 9 ;      CG314      CG311      OG311       HGP1
   61    31    32    33	 9 ;       HGA1      CG311      OG311       HGP1
    1    31    34    35	 9 ;      CG311      CG311      CG314      NG3P2
    1    31    34    41	 9 ;      CG311      CG311      CG314      CG324
    1    31    34    62	 9 ;      CG311      CG311      CG314       HGA1
   32    31    34    35	 9 ;      OG311      CG311      CG314      NG3P2
   32    31    34    41	 9 ;      OG311      CG311      CG314      CG324
   32    31    34    62	 9 ;      OG311      CG311      CG314       HGA1
   61    31    34    35	 9 ;       HGA1      CG311      CG314      NG3P2
   61    31    34    41	 9 ;       HGA1      CG311      CG314      CG324
   61    31    34    62	 9 ;       HGA1      CG311      CG314       HGA1
   31    34    35    38	 9 ;      CG311      CG314      NG3P2       HGP2
   31    34    35    37	 9 ;      CG311      CG314      NG3P2       HGP2
   31    34    35    36	 9 ;      CG311      CG314      NG3P2      CG324
   41    34    35    38	 9 ;      CG324      CG314      NG3P2       HGP2
   41    34    35    37	 9 ;      CG324      CG314      NG3P2       HGP2
   41    34    35    36	 9 ;      CG324      CG314      NG3P2      CG324
   62    34    35    38	 9 ;       HGA1      CG314      NG3P2       HGP2
   62    34    35    37	 9 ;       HGA1      CG314      NG3P2       HGP2
   62    34    35    36	 9 ;       HGA1      CG314      NG3P2      CG324
   31    34    41    40	 9 ;      CG311      CG314      CG324      NG3P2
   31    34    41    67	 9 ;      CG311      CG314      CG324       HGA2
   31    34    41    68	 9 ;      CG311      CG314      CG324       HGA2
   35    34    41    40	 9 ;      NG3P2      CG314      CG324      NG3P2
   35    34    41    67	 9 ;      NG3P2      CG314      CG324       HGA2
   35    34    41    68	 9 ;      NG3P2      CG314      CG324       HGA2
   62    34    41    40	 9 ;       HGA1      CG314      CG324      NG3P2
   62    34    41    67	 9 ;       HGA1      CG314      CG324       HGA2
   62    34    41    68	 9 ;       HGA1      CG314      CG324       HGA2
   34    35    36    39	 9 ;      CG314      NG3P2      CG324      CG324
   34    35    36    63	 9 ;      CG314      NG3P2      CG324       HGA2
   34    35    36    64	 9 ;      CG314      NG3P2      CG324       HGA2
   38    35    36    39	 9 ;       HGP2      NG3P2      CG324      CG324
   38    35    36    63	 9 ;       HGP2      NG3P2      CG324       HGA2
   38    35    36    64	 9 ;       HGP2      NG3P2      CG324       HGA2
   37    35    36    39	 9 ;       HGP2      NG3P2      CG324      CG324
   37    35    36    63	 9 ;       HGP2      NG3P2      CG324       HGA2
   37    35    36    64	 9 ;       HGP2      NG3P2      CG324       HGA2
   35    36    39    40	 9 ;      NG3P2      CG324      CG324      NG3P2
   35    36    39    65	 9 ;      NG3P2      CG324      CG324       HGA2
   35    36    39    66	 9 ;      NG3P2      CG324      CG324       HGA2
   63    36    39    40	 9 ;       HGA2      CG324      CG324      NG3P2
   63    36    39    65	 9 ;       HGA2      CG324      CG324       HGA2
   63    36    39    66	 9 ;       HGA2      CG324      CG324       HGA2
   64    36    39    40	 9 ;       HGA2      CG324      CG324      NG3P2
   64    36    39    65	 9 ;       HGA2      CG324      CG324       HGA2
   64    36    39    66	 9 ;       HGA2      CG324      CG324       HGA2
   36    39    40    41	 9 ;      CG324      CG324      NG3P2      CG324
   36    39    40    42	 9 ;      CG324      CG324      NG3P2       HGP2
   36    39    40    43	 9 ;      CG324      CG324      NG3P2       HGP2
   65    39    40    41	 9 ;       HGA2      CG324      NG3P2      CG324
   65    39    40    42	 9 ;       HGA2      CG324      NG3P2       HGP2
   65    39    40    43	 9 ;       HGA2      CG324      NG3P2       HGP2
   66    39    40    41	 9 ;       HGA2      CG324      NG3P2      CG324
   66    39    40    42	 9 ;       HGA2      CG324      NG3P2       HGP2
   66    39    40    43	 9 ;       HGA2      CG324      NG3P2       HGP2
   42    40    41    34	 9 ;       HGP2      NG3P2      CG324      CG314
   42    40    41    67	 9 ;       HGP2      NG3P2      CG324       HGA2
   42    40    41    68	 9 ;       HGP2      NG3P2      CG324       HGA2
   43    40    41    34	 9 ;       HGP2      NG3P2      CG324      CG314
   43    40    41    67	 9 ;       HGP2      NG3P2      CG324       HGA2
   43    40    41    68	 9 ;       HGP2      NG3P2      CG324       HGA2
   39    40    41    34	 9 ;      CG324      NG3P2      CG324      CG314
   39    40    41    67	 9 ;      CG324      NG3P2      CG324       HGA2
   39    40    41    68	 9 ;      CG324      NG3P2      CG324       HGA2

[ dihedrals ]
;	ai	  aj	ak	  al funct			  c0			c1			  c2			c3
   12    15    11    13	 2
   22    17    24    23	 2

