GROup of MAchos and Cynical Suckers
   53
    1LIG     C1    1  -1.469   0.279  -1.560
    1LIG     C2    2  -1.571   0.358  -1.504
    1LIG     C3    3  -1.701   0.355  -1.554
    1LIG     C4    4  -1.736   0.276  -1.664
    1LIG     C5    5  -1.633   0.204  -1.725
    1LIG     C6    6  -1.502   0.205  -1.674
    1LIG     C7    7  -1.882   0.269  -1.703
    1LIG     C8    8  -1.970   0.386  -1.735
    1LIG     C9    9  -1.984   0.319  -1.601
    1LIG    C10   10  -2.091   0.225  -1.564
    1LIG     N1   11  -2.197   0.231  -1.651
    1LIG    C11   12  -2.295   0.146  -1.637
    1LIG     HN   13  -2.199   0.300  -1.726
    1LIG     N2   14  -2.299   0.053  -1.536
    1LIG    C12   15  -2.403  -0.049  -1.525
    1LIG    C13   16  -2.198   0.047  -1.442
    1LIG     O1   17  -2.196  -0.031  -1.347
    1LIG    C14   18  -2.087   0.140  -1.461
    1LIG     N3   19  -2.395   0.155  -1.728
    1LIG     H1   20  -2.485   0.186  -1.694
    1LIG     H2   21  -2.365   0.208  -1.810
    1LIG    C15   22  -1.334   0.277  -1.498
    1LIG    C16   23  -1.247   0.169  -1.522
    1LIG    C17   24  -1.125   0.155  -1.457
    1LIG    C18   25  -1.081   0.258  -1.373
    1LIG    C19   26  -1.162   0.370  -1.352
    1LIG    C20   27  -1.288   0.378  -1.413
    1LIG     O2   28  -1.041   0.047  -1.470
    1LIG    C21   29  -1.008  -0.017  -1.346
    1LIG    C22   30  -1.120  -0.112  -1.308
    1LIG     HC   31  -1.548   0.421  -1.419
    1LIG    HC1   32  -1.776   0.416  -1.506
    1LIG    HC2   33  -1.655   0.145  -1.813
    1LIG    HC3   34  -1.426   0.147  -1.724
    1LIG    HC4   35  -1.910   0.176  -1.753
    1LIG    HC5   36  -1.927   0.486  -1.741
    1LIG    HC6   37  -2.050   0.365  -1.806
    1LIG    HC7   38  -1.941   0.375  -1.518
    1LIG    HC8   39  -2.243   0.075  -1.701
    1LIG    HC9   40  -2.384  -0.110  -1.437
    1LIG   HC10   41  -2.402  -0.111  -1.614
    1LIG   HC11   42  -2.500  -0.001  -1.516
    1LIG   HC12   43  -2.003   0.140  -1.393
    1LIG    HN1   44  -2.411   0.061  -1.761
    1LIG   HC13   45  -1.277   0.093  -1.593
    1LIG   HC14   46  -0.984   0.251  -1.326
    1LIG   HC15   47  -1.127   0.450  -1.288
    1LIG   HC16   48  -1.350   0.464  -1.393
    1LIG   HC17   49  -0.916  -0.073  -1.358
    1LIG   HC18   50  -0.996   0.058  -1.268
    1LIG   HC19   51  -1.096  -0.162  -1.214
    1LIG   HC20   52  -1.133  -0.187  -1.386
    1LIG   HC21   53  -1.213  -0.056  -1.296
   0.00000   0.00000   0.00000
