Green Red Orange Magenta Azure Cyan Skyblue
   53
    1LIG     N1    1  -1.507   0.309  -1.612
    1LIG      H    2  -1.519   0.227  -1.672
    1LIG     C1    3  -1.384   0.350  -1.568
    1LIG     N2    4  -1.350   0.476  -1.573
    1LIG     C2    5  -1.219   0.518  -1.519
    1LIG    HN1    6  -1.413   0.544  -1.614
    1LIG     C3    7  -1.185   0.438  -1.392
    1LIG     C4    8  -1.232   0.666  -1.483
    1LIG     C5    9  -1.111   0.503  -1.627
    1LIG     C6   10  -1.189   0.291  -1.425
    1LIG     C7   11  -1.095   0.201  -1.374
    1LIG     C8   12  -1.290   0.247  -1.512
    1LIG     C9   13  -1.100   0.067  -1.414
    1LIG     CL   14  -0.979  -0.042  -1.358
    1LIG    C10   15  -1.200   0.023  -1.500
    1LIG    C11   16  -1.296   0.112  -1.549
    1LIG     CA   17  -1.633   0.385  -1.608
    1LIG    C12   18  -1.732   0.328  -1.715
    1LIG     O1   19  -1.773   0.211  -1.697
    1LIG    OXT   20  -1.761   0.411  -1.808
    1LIG    C13   21  -1.698   0.385  -1.469
    1LIG    C14   22  -1.846   0.420  -1.458
    1LIG    C15   23  -1.945   0.339  -1.404
    1LIG      S   24  -2.102   0.408  -1.411
    1LIG    C16   25  -2.041   0.548  -1.485
    1LIG    C17   26  -1.905   0.544  -1.503
    1LIG    C18   27  -1.832   0.661  -1.563
    1LIG     O2   28  -1.763   0.755  -1.490
    1LIG    C19   29  -1.718   0.844  -1.582
    1LIG    C20   30  -1.761   0.803  -1.705
    1LIG     N3   31  -1.832   0.687  -1.693
    1LIG    HN2   32  -1.875   0.632  -1.768
    1LIG    HC2   33  -1.086   0.465  -1.357
    1LIG    HC3   34  -1.258   0.460  -1.314
    1LIG    HC1   35  -1.309   0.678  -1.406
    1LIG    HC4   36  -1.137   0.703  -1.445
    1LIG    HC5   37  -1.260   0.723  -1.572
    1LIG    HC6   38  -1.100   0.398  -1.654
    1LIG    HC7   39  -1.139   0.561  -1.715
    1LIG    HC8   40  -1.016   0.541  -1.588
    1LIG     HC   41  -1.019   0.235  -1.306
    1LIG    HC9   42  -1.203  -0.082  -1.529
    1LIG   HC10   43  -1.374   0.077  -1.615
    1LIG   HC11   44  -1.610   0.488  -1.634
    1LIG   HC12   45  -1.644   0.458  -1.409
    1LIG   HC13   46  -1.684   0.287  -1.425
    1LIG   HC14   47  -1.926   0.242  -1.361
    1LIG   HC15   48  -2.103   0.632  -1.515
    1LIG   HC16   49  -1.659   0.933  -1.561
    1LIG   HC17   50  -1.742   0.854  -1.798
    1LIG    H22   51  -1.342   0.335  -1.668
    1LIG    H23   52  -1.742   0.601  -1.573
    1LIG    LP1   53  -0.864  -0.146  -1.305
   0.00000   0.00000   0.00000
