; Created by cgenff_charmm2gmx.py

[ moleculetype ]
; Name			   nrexcl
LIG				 3

[ atoms ]
;	 nr		  type	resnr residue  atom   cgnr	   charge		mass  typeB    chargeB		massB
; residue	 1 LIG rtp LIG q	qsum
     1      NG311      1    LIG     N1      1     -0.806     14.007   ;
     2     HGPAM1      1    LIG      H      2      0.362      1.008   ;
     3      CG311      1    LIG     C1      3      0.346     12.011   ;
     4      NG311      1    LIG     N2      4     -0.864     14.007   ;
     5      CG301      1    LIG     C2      5      0.375     12.011   ;
     6     HGPAM1      1    LIG    HN1      6      0.350      1.008   ;
     7      CG321      1    LIG     C3      7     -0.230     12.011   ;
     8      CG331      1    LIG     C4      8     -0.295     12.011   ;
     9      CG331      1    LIG     C5      9     -0.295     12.011   ;
    10     CG2R61      1    LIG     C6     10      0.075     12.011   ;
    11     CG2R61      1    LIG     C7     11     -0.121     12.011   ;
    12     CG2R61      1    LIG     C8     12     -0.052     12.011   ;
    13     CG2R61      1    LIG     C9     13      0.048     12.011   ;
    14      CLGR1      1    LIG     CL     14     -0.200     35.453   ;
    15     CG2R61      1    LIG    C10     15     -0.099     12.011   ;
    16     CG2R61      1    LIG    C11     16     -0.108     12.011   ;
    17      CG311      1    LIG     CA     17     -0.001     12.011   ;
    18      CG2O3      1    LIG    C12     18      0.898     12.011   ;
    19      OG2D2      1    LIG     O1     19     -0.832     15.999   ;
    20      OG2D2      1    LIG    OXT     20     -0.832     15.999   ;
    21      CG321      1    LIG    C13     21     -0.271     12.011   ;
    22     CG2R51      1    LIG    C14     22      0.279     12.011   ;
    23     CG2R51      1    LIG    C15     23     -0.426     12.011   ;
    24     SG2R50      1    LIG      S     24     -0.025     32.060   ;
    25     CG2R51      1    LIG    C16     25     -0.229     12.011   ;
    26     CG2R57      1    LIG    C17     26     -0.070     12.011   ;
    27     CG3C51      1    LIG    C18     27      0.247     12.011   ;
    28     OG3C51      1    LIG     O2     28     -0.340     15.999   ;
    29     CG2R51      1    LIG    C19     29     -0.134     12.011   ;
    30     CG2R51      1    LIG    C20     30     -0.343     12.011   ;
    31     NG3C51      1    LIG     N3     31     -0.364     14.007   ;
    32       HGP1      1    LIG    HN2     32      0.288      1.008   ;
    33       HGA2      1    LIG    HC2     33      0.090      1.008   ;
    34       HGA2      1    LIG    HC3     34      0.090      1.008   ;
    35       HGA3      1    LIG    HC1     35      0.090      1.008   ;
    36       HGA3      1    LIG    HC4     36      0.090      1.008   ;
    37       HGA3      1    LIG    HC5     37      0.090      1.008   ;
    38       HGA3      1    LIG    HC6     38      0.090      1.008   ;
    39       HGA3      1    LIG    HC7     39      0.090      1.008   ;
    40       HGA3      1    LIG    HC8     40      0.090      1.008   ;
    41      HGR62      1    LIG     HC     41      0.145      1.008   ;
    42      HGR62      1    LIG    HC9     42      0.150      1.008   ;
    43      HGR61      1    LIG   HC10     43      0.116      1.008   ;
    44       HGA1      1    LIG   HC11     44      0.090      1.008   ;
    45       HGA2      1    LIG   HC12     45      0.090      1.008   ;
    46       HGA2      1    LIG   HC13     46      0.090      1.008   ;
    47      HGR52      1    LIG   HC14     47      0.200      1.008   ;
    48      HGR52      1    LIG   HC15     48      0.191      1.008   ;
    49      HGR52      1    LIG   HC16     49      0.305      1.008   ;
    50      HGR52      1    LIG   HC17     50      0.316      1.008   ;
    51       HGA1      1    LIG    H22     51      0.090      1.008   ;
    52       HGA1      1    LIG    H23     52      0.116      1.008   ;
    53        LPH      1    LIG    LP1     53      0.050      0.000   ;

[ bonds ]
;	ai	  aj funct			  c0			c1			  c2			c3
    1     3	 1 ;       NG311      CG311
    1     2	 1 ;       NG311     HGPAM1
    1    17	 1 ;       NG311      CG311
    3     4	 1 ;       CG311      NG311
    3    12	 1 ;       CG311     CG2R61
    3    51	 1 ;       CG311       HGA1
    4     5	 1 ;       NG311      CG301
    4     6	 1 ;       NG311     HGPAM1
    5     9	 1 ;       CG301      CG331
    5     8	 1 ;       CG301      CG331
    5     7	 1 ;       CG301      CG321
    7    10	 1 ;       CG321     CG2R61
    7    33	 1 ;       CG321       HGA2
    7    34	 1 ;       CG321       HGA2
    8    35	 1 ;       CG331       HGA3
    8    36	 1 ;       CG331       HGA3
    8    37	 1 ;       CG331       HGA3
    9    38	 1 ;       CG331       HGA3
    9    39	 1 ;       CG331       HGA3
    9    40	 1 ;       CG331       HGA3
   10    11	 1 ;      CG2R61     CG2R61
   10    12	 1 ;      CG2R61     CG2R61
   11    13	 1 ;      CG2R61     CG2R61
   11    41	 1 ;      CG2R61      HGR62
   12    16	 1 ;      CG2R61     CG2R61
   13    14	 1 ;      CG2R61      CLGR1
   13    15	 1 ;      CG2R61     CG2R61
   15    16	 1 ;      CG2R61     CG2R61
   15    42	 1 ;      CG2R61      HGR62
   16    43	 1 ;      CG2R61      HGR61
   17    18	 1 ;       CG311      CG2O3
   17    21	 1 ;       CG311      CG321
   17    44	 1 ;       CG311       HGA1
   18    20	 1 ;       CG2O3      OG2D2
   18    19	 1 ;       CG2O3      OG2D2
   21    22	 1 ;       CG321     CG2R51
   21    45	 1 ;       CG321       HGA2
   21    46	 1 ;       CG321       HGA2
   22    26	 1 ;      CG2R51     CG2R57
   22    23	 1 ;      CG2R51     CG2R51
   23    24	 1 ;      CG2R51     SG2R50
   23    47	 1 ;      CG2R51      HGR52
   24    25	 1 ;      SG2R50     CG2R51
   25    26	 1 ;      CG2R51     CG2R57
   25    48	 1 ;      CG2R51      HGR52
   26    27	 1 ;      CG2R57     CG3C51
   27    31	 1 ;      CG3C51     NG3C51
   27    28	 1 ;      CG3C51     OG3C51
   27    52	 1 ;      CG3C51       HGA1
   28    29	 1 ;      OG3C51     CG2R51
   29    30	 1 ;      CG2R51     CG2R51
   29    49	 1 ;      CG2R51      HGR52
   30    31	 1 ;      CG2R51     NG3C51
   30    50	 1 ;      CG2R51      HGR52
   31    32	 1 ;      NG3C51       HGP1

[ pairs ]
;	ai	  aj funct			  c0			c1			  c2			c3
    1     5	 1
    1     6	 1
    1    10	 1
    1    16	 1
    1    20	 1
    1    19	 1
    1    22	 1
    1    45	 1
    1    46	 1
    2     4	 1
    2    12	 1
    2    51	 1
    2    18	 1
    2    21	 1
    2    44	 1
    3    18	 1
    3    21	 1
    3    44	 1
    3     9	 1
    3     8	 1
    3     7	 1
    3    11	 1
    3    15	 1
    3    43	 1
    4    17	 1
    4    10	 1
    4    16	 1
    4    38	 1
    4    39	 1
    4    40	 1
    4    35	 1
    4    36	 1
    4    37	 1
    4    33	 1
    4    34	 1
    5    12	 1
    5    51	 1
    5    11	 1
    6    12	 1
    6    51	 1
    6     9	 1
    6     8	 1
    6     7	 1
    7    38	 1
    7    39	 1
    7    40	 1
    7    35	 1
    7    36	 1
    7    37	 1
    7    13	 1
    7    41	 1
    7    16	 1
    8    38	 1
    8    39	 1
    8    40	 1
    8    10	 1
    8    33	 1
    8    34	 1
    9    35	 1
    9    36	 1
    9    37	 1
    9    10	 1
    9    33	 1
    9    34	 1
   10    51	 1
   10    14	 1
   53    10	 1
   10    15	 1
   10    43	 1
   11    33	 1
   11    34	 1
   11    16	 1
   11    42	 1
   12    17	 1
   12    33	 1
   12    34	 1
   12    13	 1
   12    41	 1
   12    42	 1
   13    43	 1
   14    41	 1
   53    41	 1
   14    16	 1
   53    16	 1
   14    42	 1
   53    42	 1
   15    41	 1
   16    51	 1
   17    51	 1
   17    26	 1
   17    23	 1
   18    22	 1
   18    45	 1
   18    46	 1
   19    21	 1
   19    44	 1
   20    21	 1
   20    44	 1
   21    27	 1
   21    25	 1
   21    24	 1
   21    47	 1
   22    44	 1
   22    48	 1
   22    31	 1
   22    28	 1
   22    52	 1
   23    45	 1
   23    46	 1
   23    27	 1
   23    48	 1
   24    27	 1
   25    47	 1
   25    31	 1
   25    28	 1
   25    52	 1
   26    45	 1
   26    46	 1
   26    47	 1
   26    30	 1
   26    32	 1
   26    29	 1
   27    48	 1
   27    49	 1
   27    50	 1
   28    32	 1
   28    50	 1
   29    52	 1
   29    32	 1
   30    52	 1
   31    49	 1
   32    52	 1
   32    50	 1
   42    43	 1
   44    45	 1
   44    46	 1
   49    50	 1

[ angles ]
;	ai	  aj	ak funct			c0			  c1			c2			  c3
    3     1     2	5 ;      CG311      NG311     HGPAM1
    3     1    17	5 ;      CG311      NG311      CG311
    2     1    17	5 ;     HGPAM1      NG311      CG311
    4     3    12	5 ;      NG311      CG311     CG2R61
    4     3     1	5 ;      NG311      CG311      NG311
    4     3    51	5 ;      NG311      CG311       HGA1
   12     3     1	5 ;     CG2R61      CG311      NG311
   12     3    51	5 ;     CG2R61      CG311       HGA1
    1     3    51	5 ;      NG311      CG311       HGA1
    5     4     6	5 ;      CG301      NG311     HGPAM1
    5     4     3	5 ;      CG301      NG311      CG311
    6     4     3	5 ;     HGPAM1      NG311      CG311
    9     5     8	5 ;      CG331      CG301      CG331
    9     5     7	5 ;      CG331      CG301      CG321
    9     5     4	5 ;      CG331      CG301      NG311
    8     5     7	5 ;      CG331      CG301      CG321
    8     5     4	5 ;      CG331      CG301      NG311
    7     5     4	5 ;      CG321      CG301      NG311
    5     7    10	5 ;      CG301      CG321     CG2R61
    5     7    33	5 ;      CG301      CG321       HGA2
    5     7    34	5 ;      CG301      CG321       HGA2
   10     7    33	5 ;     CG2R61      CG321       HGA2
   10     7    34	5 ;     CG2R61      CG321       HGA2
   33     7    34	5 ;       HGA2      CG321       HGA2
    5     8    35	5 ;      CG301      CG331       HGA3
    5     8    36	5 ;      CG301      CG331       HGA3
    5     8    37	5 ;      CG301      CG331       HGA3
   35     8    36	5 ;       HGA3      CG331       HGA3
   35     8    37	5 ;       HGA3      CG331       HGA3
   36     8    37	5 ;       HGA3      CG331       HGA3
    5     9    38	5 ;      CG301      CG331       HGA3
    5     9    39	5 ;      CG301      CG331       HGA3
    5     9    40	5 ;      CG301      CG331       HGA3
   38     9    39	5 ;       HGA3      CG331       HGA3
   38     9    40	5 ;       HGA3      CG331       HGA3
   39     9    40	5 ;       HGA3      CG331       HGA3
   11    10     7	5 ;     CG2R61     CG2R61      CG321
   11    10    12	5 ;     CG2R61     CG2R61     CG2R61
    7    10    12	5 ;      CG321     CG2R61     CG2R61
   13    11    10	5 ;     CG2R61     CG2R61     CG2R61
   13    11    41	5 ;     CG2R61     CG2R61      HGR62
   10    11    41	5 ;     CG2R61     CG2R61      HGR62
   10    12    16	5 ;     CG2R61     CG2R61     CG2R61
   10    12     3	5 ;     CG2R61     CG2R61      CG311
   16    12     3	5 ;     CG2R61     CG2R61      CG311
   14    13    11	5 ;      CLGR1     CG2R61     CG2R61
   14    13    15	5 ;      CLGR1     CG2R61     CG2R61
   11    13    15	5 ;     CG2R61     CG2R61     CG2R61
   13    15    16	5 ;     CG2R61     CG2R61     CG2R61
   13    15    42	5 ;     CG2R61     CG2R61      HGR62
   16    15    42	5 ;     CG2R61     CG2R61      HGR62
   15    16    12	5 ;     CG2R61     CG2R61     CG2R61
   15    16    43	5 ;     CG2R61     CG2R61      HGR61
   12    16    43	5 ;     CG2R61     CG2R61      HGR61
    1    17    18	5 ;      NG311      CG311      CG2O3
    1    17    21	5 ;      NG311      CG311      CG321
    1    17    44	5 ;      NG311      CG311       HGA1
   18    17    21	5 ;      CG2O3      CG311      CG321
   18    17    44	5 ;      CG2O3      CG311       HGA1
   21    17    44	5 ;      CG321      CG311       HGA1
   20    18    17	5 ;      OG2D2      CG2O3      CG311
   20    18    19	5 ;      OG2D2      CG2O3      OG2D2
   17    18    19	5 ;      CG311      CG2O3      OG2D2
   17    21    22	5 ;      CG311      CG321     CG2R51
   17    21    45	5 ;      CG311      CG321       HGA2
   17    21    46	5 ;      CG311      CG321       HGA2
   22    21    45	5 ;     CG2R51      CG321       HGA2
   22    21    46	5 ;     CG2R51      CG321       HGA2
   45    21    46	5 ;       HGA2      CG321       HGA2
   21    22    26	5 ;      CG321     CG2R51     CG2R57
   21    22    23	5 ;      CG321     CG2R51     CG2R51
   26    22    23	5 ;     CG2R57     CG2R51     CG2R51
   22    23    24	5 ;     CG2R51     CG2R51     SG2R50
   22    23    47	5 ;     CG2R51     CG2R51      HGR52
   24    23    47	5 ;     SG2R50     CG2R51      HGR52
   25    24    23	5 ;     CG2R51     SG2R50     CG2R51
   26    25    24	5 ;     CG2R57     CG2R51     SG2R50
   26    25    48	5 ;     CG2R57     CG2R51      HGR52
   24    25    48	5 ;     SG2R50     CG2R51      HGR52
   27    26    22	5 ;     CG3C51     CG2R57     CG2R51
   27    26    25	5 ;     CG3C51     CG2R57     CG2R51
   22    26    25	5 ;     CG2R51     CG2R57     CG2R51
   31    27    28	5 ;     NG3C51     CG3C51     OG3C51
   31    27    26	5 ;     NG3C51     CG3C51     CG2R57
   31    27    52	5 ;     NG3C51     CG3C51       HGA1
   28    27    26	5 ;     OG3C51     CG3C51     CG2R57
   28    27    52	5 ;     OG3C51     CG3C51       HGA1
   26    27    52	5 ;     CG2R57     CG3C51       HGA1
   29    28    27	5 ;     CG2R51     OG3C51     CG3C51
   30    29    28	5 ;     CG2R51     CG2R51     OG3C51
   30    29    49	5 ;     CG2R51     CG2R51      HGR52
   28    29    49	5 ;     OG3C51     CG2R51      HGR52
   29    30    31	5 ;     CG2R51     CG2R51     NG3C51
   29    30    50	5 ;     CG2R51     CG2R51      HGR52
   31    30    50	5 ;     NG3C51     CG2R51      HGR52
   30    31    32	5 ;     CG2R51     NG3C51       HGP1
   30    31    27	5 ;     CG2R51     NG3C51     CG3C51
   32    31    27	5 ;       HGP1     NG3C51     CG3C51

[ dihedrals ]
;	ai	  aj	ak	  al funct			  c0			c1			  c2			c3			  c4			c5
    2     1     3     4	 9 ;     HGPAM1      NG311      CG311      NG311
    2     1     3    12	 9 ;     HGPAM1      NG311      CG311     CG2R61
    2     1     3    51	 9 ;     HGPAM1      NG311      CG311       HGA1
   17     1     3     4	 9 ;      CG311      NG311      CG311      NG311
   17     1     3    12	 9 ;      CG311      NG311      CG311     CG2R61
   17     1     3    51	 9 ;      CG311      NG311      CG311       HGA1
    3     1    17    18	 9 ;      CG311      NG311      CG311      CG2O3
    3     1    17    21	 9 ;      CG311      NG311      CG311      CG321
    3     1    17    44	 9 ;      CG311      NG311      CG311       HGA1
    2     1    17    18	 9 ;     HGPAM1      NG311      CG311      CG2O3
    2     1    17    21	 9 ;     HGPAM1      NG311      CG311      CG321
    2     1    17    44	 9 ;     HGPAM1      NG311      CG311       HGA1
   12     3     4     5	 9 ;     CG2R61      CG311      NG311      CG301
   12     3     4     6	 9 ;     CG2R61      CG311      NG311     HGPAM1
    1     3     4     5	 9 ;      NG311      CG311      NG311      CG301
    1     3     4     6	 9 ;      NG311      CG311      NG311     HGPAM1
   51     3     4     5	 9 ;       HGA1      CG311      NG311      CG301
   51     3     4     6	 9 ;       HGA1      CG311      NG311     HGPAM1
    4     3    12    10	 9 ;      NG311      CG311     CG2R61     CG2R61
    4     3    12    16	 9 ;      NG311      CG311     CG2R61     CG2R61
    1     3    12    10	 9 ;      NG311      CG311     CG2R61     CG2R61
    1     3    12    16	 9 ;      NG311      CG311     CG2R61     CG2R61
   51     3    12    10	 9 ;       HGA1      CG311     CG2R61     CG2R61
   51     3    12    16	 9 ;       HGA1      CG311     CG2R61     CG2R61
    6     4     5     9	 9 ;     HGPAM1      NG311      CG301      CG331
    6     4     5     8	 9 ;     HGPAM1      NG311      CG301      CG331
    6     4     5     7	 9 ;     HGPAM1      NG311      CG301      CG321
    3     4     5     9	 9 ;      CG311      NG311      CG301      CG331
    3     4     5     8	 9 ;      CG311      NG311      CG301      CG331
    3     4     5     7	 9 ;      CG311      NG311      CG301      CG321
    8     5     9    38	 9 ;      CG331      CG301      CG331       HGA3
    8     5     9    39	 9 ;      CG331      CG301      CG331       HGA3
    8     5     9    40	 9 ;      CG331      CG301      CG331       HGA3
    7     5     9    38	 9 ;      CG321      CG301      CG331       HGA3
    7     5     9    39	 9 ;      CG321      CG301      CG331       HGA3
    7     5     9    40	 9 ;      CG321      CG301      CG331       HGA3
    4     5     9    38	 9 ;      NG311      CG301      CG331       HGA3
    4     5     9    39	 9 ;      NG311      CG301      CG331       HGA3
    4     5     9    40	 9 ;      NG311      CG301      CG331       HGA3
    9     5     8    35	 9 ;      CG331      CG301      CG331       HGA3
    9     5     8    36	 9 ;      CG331      CG301      CG331       HGA3
    9     5     8    37	 9 ;      CG331      CG301      CG331       HGA3
    7     5     8    35	 9 ;      CG321      CG301      CG331       HGA3
    7     5     8    36	 9 ;      CG321      CG301      CG331       HGA3
    7     5     8    37	 9 ;      CG321      CG301      CG331       HGA3
    4     5     8    35	 9 ;      NG311      CG301      CG331       HGA3
    4     5     8    36	 9 ;      NG311      CG301      CG331       HGA3
    4     5     8    37	 9 ;      NG311      CG301      CG331       HGA3
    9     5     7    10	 9 ;      CG331      CG301      CG321     CG2R61
    9     5     7    33	 9 ;      CG331      CG301      CG321       HGA2
    9     5     7    34	 9 ;      CG331      CG301      CG321       HGA2
    8     5     7    10	 9 ;      CG331      CG301      CG321     CG2R61
    8     5     7    33	 9 ;      CG331      CG301      CG321       HGA2
    8     5     7    34	 9 ;      CG331      CG301      CG321       HGA2
    4     5     7    10	 9 ;      NG311      CG301      CG321     CG2R61
    4     5     7    33	 9 ;      NG311      CG301      CG321       HGA2
    4     5     7    34	 9 ;      NG311      CG301      CG321       HGA2
    5     7    10    11	 9 ;      CG301      CG321     CG2R61     CG2R61
    5     7    10    12	 9 ;      CG301      CG321     CG2R61     CG2R61
   33     7    10    11	 9 ;       HGA2      CG321     CG2R61     CG2R61
   33     7    10    12	 9 ;       HGA2      CG321     CG2R61     CG2R61
   34     7    10    11	 9 ;       HGA2      CG321     CG2R61     CG2R61
   34     7    10    12	 9 ;       HGA2      CG321     CG2R61     CG2R61
    7    10    11    13	 9 ;      CG321     CG2R61     CG2R61     CG2R61
    7    10    11    41	 9 ;      CG321     CG2R61     CG2R61      HGR62
   12    10    11    13	 9 ;     CG2R61     CG2R61     CG2R61     CG2R61
   12    10    11    41	 9 ;     CG2R61     CG2R61     CG2R61      HGR62
   11    10    12    16	 9 ;     CG2R61     CG2R61     CG2R61     CG2R61
   11    10    12     3	 9 ;     CG2R61     CG2R61     CG2R61      CG311
    7    10    12    16	 9 ;      CG321     CG2R61     CG2R61     CG2R61
    7    10    12     3	 9 ;      CG321     CG2R61     CG2R61      CG311
   10    11    13    14	 9 ;     CG2R61     CG2R61     CG2R61      CLGR1
   10    11    13    15	 9 ;     CG2R61     CG2R61     CG2R61     CG2R61
   41    11    13    14	 9 ;      HGR62     CG2R61     CG2R61      CLGR1
   41    11    13    15	 9 ;      HGR62     CG2R61     CG2R61     CG2R61
   10    12    16    15	 9 ;     CG2R61     CG2R61     CG2R61     CG2R61
   10    12    16    43	 9 ;     CG2R61     CG2R61     CG2R61      HGR61
    3    12    16    15	 9 ;      CG311     CG2R61     CG2R61     CG2R61
    3    12    16    43	 9 ;      CG311     CG2R61     CG2R61      HGR61
   14    13    15    16	 9 ;      CLGR1     CG2R61     CG2R61     CG2R61
   14    13    15    42	 9 ;      CLGR1     CG2R61     CG2R61      HGR62
   11    13    15    16	 9 ;     CG2R61     CG2R61     CG2R61     CG2R61
   11    13    15    42	 9 ;     CG2R61     CG2R61     CG2R61      HGR62
   13    15    16    12	 9 ;     CG2R61     CG2R61     CG2R61     CG2R61
   13    15    16    43	 9 ;     CG2R61     CG2R61     CG2R61      HGR61
   42    15    16    12	 9 ;      HGR62     CG2R61     CG2R61     CG2R61
   42    15    16    43	 9 ;      HGR62     CG2R61     CG2R61      HGR61
    1    17    18    20	 9 ;      NG311      CG311      CG2O3      OG2D2
    1    17    18    19	 9 ;      NG311      CG311      CG2O3      OG2D2
   21    17    18    20	 9 ;      CG321      CG311      CG2O3      OG2D2
   21    17    18    19	 9 ;      CG321      CG311      CG2O3      OG2D2
   44    17    18    20	 9 ;       HGA1      CG311      CG2O3      OG2D2
   44    17    18    19	 9 ;       HGA1      CG311      CG2O3      OG2D2
    1    17    21    22	 9 ;      NG311      CG311      CG321     CG2R51
    1    17    21    45	 9 ;      NG311      CG311      CG321       HGA2
    1    17    21    46	 9 ;      NG311      CG311      CG321       HGA2
   18    17    21    22	 9 ;      CG2O3      CG311      CG321     CG2R51
   18    17    21    45	 9 ;      CG2O3      CG311      CG321       HGA2
   18    17    21    46	 9 ;      CG2O3      CG311      CG321       HGA2
   44    17    21    22	 9 ;       HGA1      CG311      CG321     CG2R51
   44    17    21    45	 9 ;       HGA1      CG311      CG321       HGA2
   44    17    21    46	 9 ;       HGA1      CG311      CG321       HGA2
   17    21    22    26	 9 ;      CG311      CG321     CG2R51     CG2R57
   17    21    22    23	 9 ;      CG311      CG321     CG2R51     CG2R51
   45    21    22    26	 9 ;       HGA2      CG321     CG2R51     CG2R57
   45    21    22    23	 9 ;       HGA2      CG321     CG2R51     CG2R51
   46    21    22    26	 9 ;       HGA2      CG321     CG2R51     CG2R57
   46    21    22    23	 9 ;       HGA2      CG321     CG2R51     CG2R51
   21    22    26    27	 9 ;      CG321     CG2R51     CG2R57     CG3C51
   21    22    26    25	 9 ;      CG321     CG2R51     CG2R57     CG2R51
   23    22    26    27	 9 ;     CG2R51     CG2R51     CG2R57     CG3C51
   23    22    26    25	 9 ;     CG2R51     CG2R51     CG2R57     CG2R51
   21    22    23    24	 9 ;      CG321     CG2R51     CG2R51     SG2R50
   21    22    23    47	 9 ;      CG321     CG2R51     CG2R51      HGR52
   26    22    23    24	 9 ;     CG2R57     CG2R51     CG2R51     SG2R50
   26    22    23    47	 9 ;     CG2R57     CG2R51     CG2R51      HGR52
   22    23    24    25	 9 ;     CG2R51     CG2R51     SG2R50     CG2R51
   47    23    24    25	 9 ;      HGR52     CG2R51     SG2R50     CG2R51
   23    24    25    26	 9 ;     CG2R51     SG2R50     CG2R51     CG2R57
   23    24    25    48	 9 ;     CG2R51     SG2R50     CG2R51      HGR52
   24    25    26    27	 9 ;     SG2R50     CG2R51     CG2R57     CG3C51
   24    25    26    22	 9 ;     SG2R50     CG2R51     CG2R57     CG2R51
   48    25    26    27	 9 ;      HGR52     CG2R51     CG2R57     CG3C51
   48    25    26    22	 9 ;      HGR52     CG2R51     CG2R57     CG2R51
   22    26    27    31	 9 ;     CG2R51     CG2R57     CG3C51     NG3C51
   22    26    27    28	 9 ;     CG2R51     CG2R57     CG3C51     OG3C51
   22    26    27    52	 9 ;     CG2R51     CG2R57     CG3C51       HGA1
   25    26    27    31	 9 ;     CG2R51     CG2R57     CG3C51     NG3C51
   25    26    27    28	 9 ;     CG2R51     CG2R57     CG3C51     OG3C51
   25    26    27    52	 9 ;     CG2R51     CG2R57     CG3C51       HGA1
   28    27    31    30	 9 ;     OG3C51     CG3C51     NG3C51     CG2R51
   28    27    31    32	 9 ;     OG3C51     CG3C51     NG3C51       HGP1
   26    27    31    30	 9 ;     CG2R57     CG3C51     NG3C51     CG2R51
   26    27    31    32	 9 ;     CG2R57     CG3C51     NG3C51       HGP1
   52    27    31    30	 9 ;       HGA1     CG3C51     NG3C51     CG2R51
   52    27    31    32	 9 ;       HGA1     CG3C51     NG3C51       HGP1
   31    27    28    29	 9 ;     NG3C51     CG3C51     OG3C51     CG2R51
   26    27    28    29	 9 ;     CG2R57     CG3C51     OG3C51     CG2R51
   52    27    28    29	 9 ;       HGA1     CG3C51     OG3C51     CG2R51
   27    28    29    30	 9 ;     CG3C51     OG3C51     CG2R51     CG2R51
   27    28    29    49	 9 ;     CG3C51     OG3C51     CG2R51      HGR52
   28    29    30    31	 9 ;     OG3C51     CG2R51     CG2R51     NG3C51
   28    29    30    50	 9 ;     OG3C51     CG2R51     CG2R51      HGR52
   49    29    30    31	 9 ;      HGR52     CG2R51     CG2R51     NG3C51
   49    29    30    50	 9 ;      HGR52     CG2R51     CG2R51      HGR52
   29    30    31    32	 9 ;     CG2R51     CG2R51     NG3C51       HGP1
   29    30    31    27	 9 ;     CG2R51     CG2R51     NG3C51     CG3C51
   50    30    31    32	 9 ;      HGR52     CG2R51     NG3C51       HGP1
   50    30    31    27	 9 ;      HGR52     CG2R51     NG3C51     CG3C51

[ dihedrals ]
;	ai	  aj	ak	  al funct			  c0			c1			  c2			c3
   18    19    20    17	 2

[ virtual_sites2 ]
; Site   from				funct a
   53    14    13     2   -0.164

[ exclusions ]
;	ai	  aj
   14    53
   53    13
   53    11
   53    15
   53    10
   53    41
   53    16
   53    42

