; Created by cgenff_charmm2gmx.py

[ moleculetype ]
; Name			   nrexcl
LIG				 3

[ atoms ]
;	 nr		  type	resnr residue  atom   cgnr	   charge		mass  typeB    chargeB		massB
; residue	 1 LIG rtp LIG q	qsum
     1      NG3P2      1    LIG     N1      1     -0.753     14.007   ;
     2       HGP2      1    LIG     H1      2      0.351      1.008   ;
     3       HGP2      1    LIG     H2      3      0.351      1.008   ;
     4      CG324      1    LIG     C1      4      0.261     12.011   ;
     5      CG311      1    LIG     C2      5      0.095     12.011   ;
     6      OG311      1    LIG     O1      6     -0.625     15.999   ;
     7       HGP1      1    LIG     H3      7      0.415      1.008   ;
     8      CG311      1    LIG     C3      8     -0.007     12.011   ;
     9      CG321      1    LIG     C4      9     -0.153     12.011   ;
    10     CG2R61      1    LIG     C5     10      0.057     12.011   ;
    11     CG2R61      1    LIG     C6     11     -0.218     12.011   ;
    12     CG2R66      1    LIG     C7     12      0.261     12.011   ;
    13       FGR1      1    LIG     F1     13     -0.210     18.998   ;
    14     CG2R61      1    LIG     C8     14     -0.240     12.011   ;
    15     CG2R66      1    LIG     C9     15      0.261     12.011   ;
    16     CG2R61      1    LIG    C10     16     -0.218     12.011   ;
    17       FGR1      1    LIG     F2     17     -0.210     18.998   ;
    18      NG2S1      1    LIG     N2     18     -0.339     14.007   ;
    19      CG2O1      1    LIG    C11     19      0.488     12.011   ;
    20      OG2D1      1    LIG     O2     20     -0.509     15.999   ;
    21      CG331      1    LIG    C12     21     -0.270     12.011   ;
    22       HGP1      1    LIG     H4     22      0.261      1.008   ;
    23     CG3C50      1    LIG    C13     23      0.842     12.011   ;
    24     CG3C52      1    LIG    C14     24     -0.206     12.011   ;
    25     CG3C52      1    LIG    C15     25      0.093     12.011   ;
    26     OG3C51      1    LIG     O3     26     -0.384     15.999   ;
    27     CG3C52      1    LIG    C16     27      0.022     12.011   ;
    28     CG2R61      1    LIG    C17     28     -0.292     12.011   ;
    29     CG2R61      1    LIG    C18     29     -0.151     12.011   ;
    30     CG2R61      1    LIG    C19     30     -0.052     12.011   ;
    31     CG2R61      1    LIG    C20     31     -0.137     12.011   ;
    32     CG2R61      1    LIG    C21     32     -0.103     12.011   ;
    33     CG2R61      1    LIG    C22     33     -0.130     12.011   ;
    34     NG3C51      1    LIG     N3     34      0.029     14.007   ;
    35     NG3C51      1    LIG     N4     35     -0.617     14.007   ;
    36     CG3C52      1    LIG    C23     36      0.223     12.011   ;
    37       HGP1      1    LIG     HN     37      0.353      1.008   ;
    38     CG2R51      1    LIG    C24     38     -0.424     12.011   ;
    39     CG2R51      1    LIG    C25     39     -0.020     12.011   ;
    40       HGA2      1    LIG    HC2     40      0.090      1.008   ;
    41       HGA2      1    LIG    HC3     41      0.090      1.008   ;
    42       HGA1      1    LIG     HC     42      0.090      1.008   ;
    43       HGA1      1    LIG    HC1     43      0.090      1.008   ;
    44       HGA2      1    LIG    HC4     44      0.090      1.008   ;
    45       HGA2      1    LIG    HC5     45      0.090      1.008   ;
    46      HGR62      1    LIG    HC6     46      0.174      1.008   ;
    47      HGR62      1    LIG    HC7     47      0.186      1.008   ;
    48      HGR62      1    LIG    HC8     48      0.174      1.008   ;
    49       HGA3      1    LIG    HC9     49      0.090      1.008   ;
    50       HGA3      1    LIG   HC10     50      0.090      1.008   ;
    51       HGA3      1    LIG   HC11     51      0.090      1.008   ;
    52       HGA2      1    LIG   HC12     52      0.090      1.008   ;
    53       HGA2      1    LIG   HC13     53      0.090      1.008   ;
    54       HGA2      1    LIG   HC14     54      0.090      1.008   ;
    55       HGA2      1    LIG   HC15     55      0.090      1.008   ;
    56       HGA2      1    LIG   HC16     56      0.090      1.008   ;
    57       HGA2      1    LIG   HC17     57      0.090      1.008   ;
    58      HGR61      1    LIG   HC18     58      0.116      1.008   ;
    59      HGR61      1    LIG   HC19     59      0.116      1.008   ;
    60      HGR61      1    LIG   HC20     60      0.116      1.008   ;
    61      HGR61      1    LIG   HC21     61      0.116      1.008   ;
    62       HGA2      1    LIG   HC22     62      0.090      1.008   ;
    63      HGR51      1    LIG   HC23     63      0.214      1.008   ;
    64      HGR52      1    LIG   HC24     64      0.163      1.008   ;
    65       HGA2      1    LIG    H31     65      0.090      1.008   ;

[ bonds ]
;	ai	  aj funct			  c0			c1			  c2			c3
    1     4	 1 ;       NG3P2      CG324
    1     2	 1 ;       NG3P2       HGP2
    1    23	 1 ;       NG3P2     CG3C50
    1     3	 1 ;       NG3P2       HGP2
    4     5	 1 ;       CG324      CG311
    4    40	 1 ;       CG324       HGA2
    4    41	 1 ;       CG324       HGA2
    5     8	 1 ;       CG311      CG311
    5     6	 1 ;       CG311      OG311
    5    42	 1 ;       CG311       HGA1
    6     7	 1 ;       OG311       HGP1
    8    18	 1 ;       CG311      NG2S1
    8     9	 1 ;       CG311      CG321
    8    43	 1 ;       CG311       HGA1
    9    10	 1 ;       CG321     CG2R61
    9    44	 1 ;       CG321       HGA2
    9    45	 1 ;       CG321       HGA2
   10    11	 1 ;      CG2R61     CG2R61
   10    16	 1 ;      CG2R61     CG2R61
   11    12	 1 ;      CG2R61     CG2R66
   11    46	 1 ;      CG2R61      HGR62
   12    13	 1 ;      CG2R66       FGR1
   12    14	 1 ;      CG2R66     CG2R61
   14    15	 1 ;      CG2R61     CG2R66
   14    47	 1 ;      CG2R61      HGR62
   15    17	 1 ;      CG2R66       FGR1
   15    16	 1 ;      CG2R66     CG2R61
   16    48	 1 ;      CG2R61      HGR62
   18    22	 1 ;       NG2S1       HGP1
   18    19	 1 ;       NG2S1      CG2O1
   19    21	 1 ;       CG2O1      CG331
   19    20	 1 ;       CG2O1      OG2D1
   21    49	 1 ;       CG331       HGA3
   21    50	 1 ;       CG331       HGA3
   21    51	 1 ;       CG331       HGA3
   23    28	 1 ;      CG3C50     CG2R61
   23    27	 1 ;      CG3C50     CG3C52
   23    24	 1 ;      CG3C50     CG3C52
   24    25	 1 ;      CG3C52     CG3C52
   24    52	 1 ;      CG3C52       HGA2
   24    53	 1 ;      CG3C52       HGA2
   25    26	 1 ;      CG3C52     OG3C51
   25    54	 1 ;      CG3C52       HGA2
   25    55	 1 ;      CG3C52       HGA2
   26    27	 1 ;      OG3C51     CG3C52
   27    56	 1 ;      CG3C52       HGA2
   27    57	 1 ;      CG3C52       HGA2
   28    29	 1 ;      CG2R61     CG2R61
   28    33	 1 ;      CG2R61     CG2R61
   29    30	 1 ;      CG2R61     CG2R61
   29    58	 1 ;      CG2R61      HGR61
   30    34	 1 ;      CG2R61     NG3C51
   30    31	 1 ;      CG2R61     CG2R61
   31    32	 1 ;      CG2R61     CG2R61
   31    59	 1 ;      CG2R61      HGR61
   32    33	 1 ;      CG2R61     CG2R61
   32    60	 1 ;      CG2R61      HGR61
   33    61	 1 ;      CG2R61      HGR61
   34    35	 1 ;      NG3C51     NG3C51
   34    39	 1 ;      NG3C51     CG2R51
   35    37	 1 ;      NG3C51       HGP1
   35    36	 1 ;      NG3C51     CG3C52
   36    38	 1 ;      CG3C52     CG2R51
   36    62	 1 ;      CG3C52       HGA2
   36    65	 1 ;      CG3C52       HGA2
   38    39	 1 ;      CG2R51     CG2R51
   38    63	 1 ;      CG2R51      HGR51
   39    64	 1 ;      CG2R51      HGR52

[ pairs ]
;	ai	  aj funct			  c0			c1			  c2			c3
    1     8	 1
    1     6	 1
    1    42	 1
    1    29	 1
    1    33	 1
    1    26	 1
    1    56	 1
    1    57	 1
    1    25	 1
    1    52	 1
    1    53	 1
    2     5	 1
    2    40	 1
    2    41	 1
    2    28	 1
    2    27	 1
    2    24	 1
    3     5	 1
    3    40	 1
    3    41	 1
    3    28	 1
    3    27	 1
    3    24	 1
    4    28	 1
    4    27	 1
    4    24	 1
    4    18	 1
    4     9	 1
    4    43	 1
    4     7	 1
    5    23	 1
    5    22	 1
    5    19	 1
    5    10	 1
    5    44	 1
    5    45	 1
    6    40	 1
    6    41	 1
    6    18	 1
    6     9	 1
    6    43	 1
    7     8	 1
    7    42	 1
    8    40	 1
    8    41	 1
    8    11	 1
    8    16	 1
    8    21	 1
    8    20	 1
    9    42	 1
    9    22	 1
    9    19	 1
    9    12	 1
    9    46	 1
    9    15	 1
    9    48	 1
   10    18	 1
   10    43	 1
   10    13	 1
   10    14	 1
   10    17	 1
   11    44	 1
   11    45	 1
   11    15	 1
   11    48	 1
   11    47	 1
   12    16	 1
   12    17	 1
   13    46	 1
   13    15	 1
   13    47	 1
   14    46	 1
   14    48	 1
   16    44	 1
   16    45	 1
   16    46	 1
   16    47	 1
   17    47	 1
   17    48	 1
   18    42	 1
   18    44	 1
   18    45	 1
   18    49	 1
   18    50	 1
   18    51	 1
   19    43	 1
   20    22	 1
   20    49	 1
   20    50	 1
   20    51	 1
   21    22	 1
   22    43	 1
   23    40	 1
   23    41	 1
   23    54	 1
   23    55	 1
   23    30	 1
   23    58	 1
   23    32	 1
   23    61	 1
   24    29	 1
   24    33	 1
   24    56	 1
   24    57	 1
   25    28	 1
   25    56	 1
   25    57	 1
   26    28	 1
   26    52	 1
   26    53	 1
   27    29	 1
   27    33	 1
   27    52	 1
   27    53	 1
   27    54	 1
   27    55	 1
   28    56	 1
   28    57	 1
   28    52	 1
   28    53	 1
   28    34	 1
   28    31	 1
   28    60	 1
   29    32	 1
   29    61	 1
   29    35	 1
   29    39	 1
   29    59	 1
   30    33	 1
   30    60	 1
   30    37	 1
   30    36	 1
   30    38	 1
   30    64	 1
   31    58	 1
   31    35	 1
   31    39	 1
   31    61	 1
   32    34	 1
   33    58	 1
   33    59	 1
   34    58	 1
   34    59	 1
   34    62	 1
   34    65	 1
   34    63	 1
   35    64	 1
   35    63	 1
   36    64	 1
   37    39	 1
   37    38	 1
   37    62	 1
   37    65	 1
   39    62	 1
   39    65	 1
   40    42	 1
   41    42	 1
   42    43	 1
   43    44	 1
   43    45	 1
   52    54	 1
   52    55	 1
   53    54	 1
   53    55	 1
   59    60	 1
   60    61	 1
   62    63	 1
   63    65	 1
   63    64	 1

[ angles ]
;	ai	  aj	ak funct			c0			  c1			c2			  c3
    4     1     2	5 ;      CG324      NG3P2       HGP2
    4     1    23	5 ;      CG324      NG3P2     CG3C50
    4     1     3	5 ;      CG324      NG3P2       HGP2
    2     1    23	5 ;       HGP2      NG3P2     CG3C50
    2     1     3	5 ;       HGP2      NG3P2       HGP2
   23     1     3	5 ;     CG3C50      NG3P2       HGP2
    5     4     1	5 ;      CG311      CG324      NG3P2
    5     4    40	5 ;      CG311      CG324       HGA2
    5     4    41	5 ;      CG311      CG324       HGA2
    1     4    40	5 ;      NG3P2      CG324       HGA2
    1     4    41	5 ;      NG3P2      CG324       HGA2
   40     4    41	5 ;       HGA2      CG324       HGA2
    8     5     4	5 ;      CG311      CG311      CG324
    8     5     6	5 ;      CG311      CG311      OG311
    8     5    42	5 ;      CG311      CG311       HGA1
    4     5     6	5 ;      CG324      CG311      OG311
    4     5    42	5 ;      CG324      CG311       HGA1
    6     5    42	5 ;      OG311      CG311       HGA1
    5     6     7	5 ;      CG311      OG311       HGP1
   18     8     9	5 ;      NG2S1      CG311      CG321
   18     8     5	5 ;      NG2S1      CG311      CG311
   18     8    43	5 ;      NG2S1      CG311       HGA1
    9     8     5	5 ;      CG321      CG311      CG311
    9     8    43	5 ;      CG321      CG311       HGA1
    5     8    43	5 ;      CG311      CG311       HGA1
   10     9     8	5 ;     CG2R61      CG321      CG311
   10     9    44	5 ;     CG2R61      CG321       HGA2
   10     9    45	5 ;     CG2R61      CG321       HGA2
    8     9    44	5 ;      CG311      CG321       HGA2
    8     9    45	5 ;      CG311      CG321       HGA2
   44     9    45	5 ;       HGA2      CG321       HGA2
   11    10    16	5 ;     CG2R61     CG2R61     CG2R61
   11    10     9	5 ;     CG2R61     CG2R61      CG321
   16    10     9	5 ;     CG2R61     CG2R61      CG321
   12    11    10	5 ;     CG2R66     CG2R61     CG2R61
   12    11    46	5 ;     CG2R66     CG2R61      HGR62
   10    11    46	5 ;     CG2R61     CG2R61      HGR62
   13    12    14	5 ;       FGR1     CG2R66     CG2R61
   13    12    11	5 ;       FGR1     CG2R66     CG2R61
   14    12    11	5 ;     CG2R61     CG2R66     CG2R61
   12    14    15	5 ;     CG2R66     CG2R61     CG2R66
   12    14    47	5 ;     CG2R66     CG2R61      HGR62
   15    14    47	5 ;     CG2R66     CG2R61      HGR62
   14    15    17	5 ;     CG2R61     CG2R66       FGR1
   14    15    16	5 ;     CG2R61     CG2R66     CG2R61
   17    15    16	5 ;       FGR1     CG2R66     CG2R61
   15    16    10	5 ;     CG2R66     CG2R61     CG2R61
   15    16    48	5 ;     CG2R66     CG2R61      HGR62
   10    16    48	5 ;     CG2R61     CG2R61      HGR62
   22    18    19	5 ;       HGP1      NG2S1      CG2O1
   22    18     8	5 ;       HGP1      NG2S1      CG311
   19    18     8	5 ;      CG2O1      NG2S1      CG311
   21    19    18	5 ;      CG331      CG2O1      NG2S1
   21    19    20	5 ;      CG331      CG2O1      OG2D1
   18    19    20	5 ;      NG2S1      CG2O1      OG2D1
   19    21    49	5 ;      CG2O1      CG331       HGA3
   19    21    50	5 ;      CG2O1      CG331       HGA3
   19    21    51	5 ;      CG2O1      CG331       HGA3
   49    21    50	5 ;       HGA3      CG331       HGA3
   49    21    51	5 ;       HGA3      CG331       HGA3
   50    21    51	5 ;       HGA3      CG331       HGA3
   28    23     1	5 ;     CG2R61     CG3C50      NG3P2
   28    23    27	5 ;     CG2R61     CG3C50     CG3C52
   28    23    24	5 ;     CG2R61     CG3C50     CG3C52
    1    23    27	5 ;      NG3P2     CG3C50     CG3C52
    1    23    24	5 ;      NG3P2     CG3C50     CG3C52
   27    23    24	5 ;     CG3C52     CG3C50     CG3C52
   23    24    25	5 ;     CG3C50     CG3C52     CG3C52
   23    24    52	5 ;     CG3C50     CG3C52       HGA2
   23    24    53	5 ;     CG3C50     CG3C52       HGA2
   25    24    52	5 ;     CG3C52     CG3C52       HGA2
   25    24    53	5 ;     CG3C52     CG3C52       HGA2
   52    24    53	5 ;       HGA2     CG3C52       HGA2
   24    25    26	5 ;     CG3C52     CG3C52     OG3C51
   24    25    54	5 ;     CG3C52     CG3C52       HGA2
   24    25    55	5 ;     CG3C52     CG3C52       HGA2
   26    25    54	5 ;     OG3C51     CG3C52       HGA2
   26    25    55	5 ;     OG3C51     CG3C52       HGA2
   54    25    55	5 ;       HGA2     CG3C52       HGA2
   27    26    25	5 ;     CG3C52     OG3C51     CG3C52
   23    27    26	5 ;     CG3C50     CG3C52     OG3C51
   23    27    56	5 ;     CG3C50     CG3C52       HGA2
   23    27    57	5 ;     CG3C50     CG3C52       HGA2
   26    27    56	5 ;     OG3C51     CG3C52       HGA2
   26    27    57	5 ;     OG3C51     CG3C52       HGA2
   56    27    57	5 ;       HGA2     CG3C52       HGA2
   29    28    33	5 ;     CG2R61     CG2R61     CG2R61
   29    28    23	5 ;     CG2R61     CG2R61     CG3C50
   33    28    23	5 ;     CG2R61     CG2R61     CG3C50
   30    29    28	5 ;     CG2R61     CG2R61     CG2R61
   30    29    58	5 ;     CG2R61     CG2R61      HGR61
   28    29    58	5 ;     CG2R61     CG2R61      HGR61
   34    30    31	5 ;     NG3C51     CG2R61     CG2R61
   34    30    29	5 ;     NG3C51     CG2R61     CG2R61
   31    30    29	5 ;     CG2R61     CG2R61     CG2R61
   30    31    32	5 ;     CG2R61     CG2R61     CG2R61
   30    31    59	5 ;     CG2R61     CG2R61      HGR61
   32    31    59	5 ;     CG2R61     CG2R61      HGR61
   31    32    33	5 ;     CG2R61     CG2R61     CG2R61
   31    32    60	5 ;     CG2R61     CG2R61      HGR61
   33    32    60	5 ;     CG2R61     CG2R61      HGR61
   32    33    28	5 ;     CG2R61     CG2R61     CG2R61
   32    33    61	5 ;     CG2R61     CG2R61      HGR61
   28    33    61	5 ;     CG2R61     CG2R61      HGR61
   35    34    39	5 ;     NG3C51     NG3C51     CG2R51
   35    34    30	5 ;     NG3C51     NG3C51     CG2R61
   39    34    30	5 ;     CG2R51     NG3C51     CG2R61
   37    35    36	5 ;       HGP1     NG3C51     CG3C52
   37    35    34	5 ;       HGP1     NG3C51     NG3C51
   36    35    34	5 ;     CG3C52     NG3C51     NG3C51
   35    36    38	5 ;     NG3C51     CG3C52     CG2R51
   35    36    62	5 ;     NG3C51     CG3C52       HGA2
   35    36    65	5 ;     NG3C51     CG3C52       HGA2
   38    36    62	5 ;     CG2R51     CG3C52       HGA2
   38    36    65	5 ;     CG2R51     CG3C52       HGA2
   62    36    65	5 ;       HGA2     CG3C52       HGA2
   36    38    39	5 ;     CG3C52     CG2R51     CG2R51
   36    38    63	5 ;     CG3C52     CG2R51      HGR51
   39    38    63	5 ;     CG2R51     CG2R51      HGR51
   38    39    34	5 ;     CG2R51     CG2R51     NG3C51
   38    39    64	5 ;     CG2R51     CG2R51      HGR52
   34    39    64	5 ;     NG3C51     CG2R51      HGR52

[ dihedrals ]
;	ai	  aj	ak	  al funct			  c0			c1			  c2			c3			  c4			c5
    2     1     4     5	 9 ;       HGP2      NG3P2      CG324      CG311
    2     1     4    40	 9 ;       HGP2      NG3P2      CG324       HGA2
    2     1     4    41	 9 ;       HGP2      NG3P2      CG324       HGA2
   23     1     4     5	 9 ;     CG3C50      NG3P2      CG324      CG311
   23     1     4    40	 9 ;     CG3C50      NG3P2      CG324       HGA2
   23     1     4    41	 9 ;     CG3C50      NG3P2      CG324       HGA2
    3     1     4     5	 9 ;       HGP2      NG3P2      CG324      CG311
    3     1     4    40	 9 ;       HGP2      NG3P2      CG324       HGA2
    3     1     4    41	 9 ;       HGP2      NG3P2      CG324       HGA2
    4     1    23    28	 9 ;      CG324      NG3P2     CG3C50     CG2R61
    4     1    23    27	 9 ;      CG324      NG3P2     CG3C50     CG3C52
    4     1    23    24	 9 ;      CG324      NG3P2     CG3C50     CG3C52
    2     1    23    28	 9 ;       HGP2      NG3P2     CG3C50     CG2R61
    2     1    23    27	 9 ;       HGP2      NG3P2     CG3C50     CG3C52
    2     1    23    24	 9 ;       HGP2      NG3P2     CG3C50     CG3C52
    3     1    23    28	 9 ;       HGP2      NG3P2     CG3C50     CG2R61
    3     1    23    27	 9 ;       HGP2      NG3P2     CG3C50     CG3C52
    3     1    23    24	 9 ;       HGP2      NG3P2     CG3C50     CG3C52
    1     4     5     8	 9 ;      NG3P2      CG324      CG311      CG311
    1     4     5     6	 9 ;      NG3P2      CG324      CG311      OG311
    1     4     5    42	 9 ;      NG3P2      CG324      CG311       HGA1
   40     4     5     8	 9 ;       HGA2      CG324      CG311      CG311
   40     4     5     6	 9 ;       HGA2      CG324      CG311      OG311
   40     4     5    42	 9 ;       HGA2      CG324      CG311       HGA1
   41     4     5     8	 9 ;       HGA2      CG324      CG311      CG311
   41     4     5     6	 9 ;       HGA2      CG324      CG311      OG311
   41     4     5    42	 9 ;       HGA2      CG324      CG311       HGA1
    4     5     8    18	 9 ;      CG324      CG311      CG311      NG2S1
    4     5     8     9	 9 ;      CG324      CG311      CG311      CG321
    4     5     8    43	 9 ;      CG324      CG311      CG311       HGA1
    6     5     8    18	 9 ;      OG311      CG311      CG311      NG2S1
    6     5     8     9	 9 ;      OG311      CG311      CG311      CG321
    6     5     8    43	 9 ;      OG311      CG311      CG311       HGA1
   42     5     8    18	 9 ;       HGA1      CG311      CG311      NG2S1
   42     5     8     9	 9 ;       HGA1      CG311      CG311      CG321
   42     5     8    43	 9 ;       HGA1      CG311      CG311       HGA1
    8     5     6     7	 9 ;      CG311      CG311      OG311       HGP1
    4     5     6     7	 9 ;      CG324      CG311      OG311       HGP1
   42     5     6     7	 9 ;       HGA1      CG311      OG311       HGP1
    9     8    18    22	 9 ;      CG321      CG311      NG2S1       HGP1
    9     8    18    19	 9 ;      CG321      CG311      NG2S1      CG2O1
    5     8    18    22	 9 ;      CG311      CG311      NG2S1       HGP1
    5     8    18    19	 9 ;      CG311      CG311      NG2S1      CG2O1
   43     8    18    22	 9 ;       HGA1      CG311      NG2S1       HGP1
   43     8    18    19	 9 ;       HGA1      CG311      NG2S1      CG2O1
   18     8     9    10	 9 ;      NG2S1      CG311      CG321     CG2R61
   18     8     9    44	 9 ;      NG2S1      CG311      CG321       HGA2
   18     8     9    45	 9 ;      NG2S1      CG311      CG321       HGA2
    5     8     9    10	 9 ;      CG311      CG311      CG321     CG2R61
    5     8     9    44	 9 ;      CG311      CG311      CG321       HGA2
    5     8     9    45	 9 ;      CG311      CG311      CG321       HGA2
   43     8     9    10	 9 ;       HGA1      CG311      CG321     CG2R61
   43     8     9    44	 9 ;       HGA1      CG311      CG321       HGA2
   43     8     9    45	 9 ;       HGA1      CG311      CG321       HGA2
    8     9    10    11	 9 ;      CG311      CG321     CG2R61     CG2R61
    8     9    10    16	 9 ;      CG311      CG321     CG2R61     CG2R61
   44     9    10    11	 9 ;       HGA2      CG321     CG2R61     CG2R61
   44     9    10    16	 9 ;       HGA2      CG321     CG2R61     CG2R61
   45     9    10    11	 9 ;       HGA2      CG321     CG2R61     CG2R61
   45     9    10    16	 9 ;       HGA2      CG321     CG2R61     CG2R61
   16    10    11    12	 9 ;     CG2R61     CG2R61     CG2R61     CG2R66
   16    10    11    46	 9 ;     CG2R61     CG2R61     CG2R61      HGR62
    9    10    11    12	 9 ;      CG321     CG2R61     CG2R61     CG2R66
    9    10    11    46	 9 ;      CG321     CG2R61     CG2R61      HGR62
   11    10    16    15	 9 ;     CG2R61     CG2R61     CG2R61     CG2R66
   11    10    16    48	 9 ;     CG2R61     CG2R61     CG2R61      HGR62
    9    10    16    15	 9 ;      CG321     CG2R61     CG2R61     CG2R66
    9    10    16    48	 9 ;      CG321     CG2R61     CG2R61      HGR62
   10    11    12    13	 9 ;     CG2R61     CG2R61     CG2R66       FGR1
   10    11    12    14	 9 ;     CG2R61     CG2R61     CG2R66     CG2R61
   46    11    12    13	 9 ;      HGR62     CG2R61     CG2R66       FGR1
   46    11    12    14	 9 ;      HGR62     CG2R61     CG2R66     CG2R61
   13    12    14    15	 9 ;       FGR1     CG2R66     CG2R61     CG2R66
   13    12    14    47	 9 ;       FGR1     CG2R66     CG2R61      HGR62
   11    12    14    15	 9 ;     CG2R61     CG2R66     CG2R61     CG2R66
   11    12    14    47	 9 ;     CG2R61     CG2R66     CG2R61      HGR62
   12    14    15    17	 9 ;     CG2R66     CG2R61     CG2R66       FGR1
   12    14    15    16	 9 ;     CG2R66     CG2R61     CG2R66     CG2R61
   47    14    15    17	 9 ;      HGR62     CG2R61     CG2R66       FGR1
   47    14    15    16	 9 ;      HGR62     CG2R61     CG2R66     CG2R61
   14    15    16    10	 9 ;     CG2R61     CG2R66     CG2R61     CG2R61
   14    15    16    48	 9 ;     CG2R61     CG2R66     CG2R61      HGR62
   17    15    16    10	 9 ;       FGR1     CG2R66     CG2R61     CG2R61
   17    15    16    48	 9 ;       FGR1     CG2R66     CG2R61      HGR62
   22    18    19    21	 9 ;       HGP1      NG2S1      CG2O1      CG331
   22    18    19    20	 9 ;       HGP1      NG2S1      CG2O1      OG2D1
    8    18    19    21	 9 ;      CG311      NG2S1      CG2O1      CG331
    8    18    19    20	 9 ;      CG311      NG2S1      CG2O1      OG2D1
   18    19    21    49	 9 ;      NG2S1      CG2O1      CG331       HGA3
   18    19    21    50	 9 ;      NG2S1      CG2O1      CG331       HGA3
   18    19    21    51	 9 ;      NG2S1      CG2O1      CG331       HGA3
   20    19    21    49	 9 ;      OG2D1      CG2O1      CG331       HGA3
   20    19    21    50	 9 ;      OG2D1      CG2O1      CG331       HGA3
   20    19    21    51	 9 ;      OG2D1      CG2O1      CG331       HGA3
    1    23    28    29	 9 ;      NG3P2     CG3C50     CG2R61     CG2R61
    1    23    28    33	 9 ;      NG3P2     CG3C50     CG2R61     CG2R61
   27    23    28    29	 9 ;     CG3C52     CG3C50     CG2R61     CG2R61
   27    23    28    33	 9 ;     CG3C52     CG3C50     CG2R61     CG2R61
   24    23    28    29	 9 ;     CG3C52     CG3C50     CG2R61     CG2R61
   24    23    28    33	 9 ;     CG3C52     CG3C50     CG2R61     CG2R61
   28    23    27    26	 9 ;     CG2R61     CG3C50     CG3C52     OG3C51
   28    23    27    56	 9 ;     CG2R61     CG3C50     CG3C52       HGA2
   28    23    27    57	 9 ;     CG2R61     CG3C50     CG3C52       HGA2
    1    23    27    26	 9 ;      NG3P2     CG3C50     CG3C52     OG3C51
    1    23    27    56	 9 ;      NG3P2     CG3C50     CG3C52       HGA2
    1    23    27    57	 9 ;      NG3P2     CG3C50     CG3C52       HGA2
   24    23    27    26	 9 ;     CG3C52     CG3C50     CG3C52     OG3C51
   24    23    27    56	 9 ;     CG3C52     CG3C50     CG3C52       HGA2
   24    23    27    57	 9 ;     CG3C52     CG3C50     CG3C52       HGA2
   28    23    24    25	 9 ;     CG2R61     CG3C50     CG3C52     CG3C52
   28    23    24    52	 9 ;     CG2R61     CG3C50     CG3C52       HGA2
   28    23    24    53	 9 ;     CG2R61     CG3C50     CG3C52       HGA2
    1    23    24    25	 9 ;      NG3P2     CG3C50     CG3C52     CG3C52
    1    23    24    52	 9 ;      NG3P2     CG3C50     CG3C52       HGA2
    1    23    24    53	 9 ;      NG3P2     CG3C50     CG3C52       HGA2
   27    23    24    25	 9 ;     CG3C52     CG3C50     CG3C52     CG3C52
   27    23    24    52	 9 ;     CG3C52     CG3C50     CG3C52       HGA2
   27    23    24    53	 9 ;     CG3C52     CG3C50     CG3C52       HGA2
   23    24    25    26	 9 ;     CG3C50     CG3C52     CG3C52     OG3C51
   23    24    25    54	 9 ;     CG3C50     CG3C52     CG3C52       HGA2
   23    24    25    55	 9 ;     CG3C50     CG3C52     CG3C52       HGA2
   52    24    25    26	 9 ;       HGA2     CG3C52     CG3C52     OG3C51
   52    24    25    54	 9 ;       HGA2     CG3C52     CG3C52       HGA2
   52    24    25    55	 9 ;       HGA2     CG3C52     CG3C52       HGA2
   53    24    25    26	 9 ;       HGA2     CG3C52     CG3C52     OG3C51
   53    24    25    54	 9 ;       HGA2     CG3C52     CG3C52       HGA2
   53    24    25    55	 9 ;       HGA2     CG3C52     CG3C52       HGA2
   24    25    26    27	 9 ;     CG3C52     CG3C52     OG3C51     CG3C52
   54    25    26    27	 9 ;       HGA2     CG3C52     OG3C51     CG3C52
   55    25    26    27	 9 ;       HGA2     CG3C52     OG3C51     CG3C52
   25    26    27    23	 9 ;     CG3C52     OG3C51     CG3C52     CG3C50
   25    26    27    56	 9 ;     CG3C52     OG3C51     CG3C52       HGA2
   25    26    27    57	 9 ;     CG3C52     OG3C51     CG3C52       HGA2
   33    28    29    30	 9 ;     CG2R61     CG2R61     CG2R61     CG2R61
   33    28    29    58	 9 ;     CG2R61     CG2R61     CG2R61      HGR61
   23    28    29    30	 9 ;     CG3C50     CG2R61     CG2R61     CG2R61
   23    28    29    58	 9 ;     CG3C50     CG2R61     CG2R61      HGR61
   29    28    33    32	 9 ;     CG2R61     CG2R61     CG2R61     CG2R61
   29    28    33    61	 9 ;     CG2R61     CG2R61     CG2R61      HGR61
   23    28    33    32	 9 ;     CG3C50     CG2R61     CG2R61     CG2R61
   23    28    33    61	 9 ;     CG3C50     CG2R61     CG2R61      HGR61
   28    29    30    34	 9 ;     CG2R61     CG2R61     CG2R61     NG3C51
   28    29    30    31	 9 ;     CG2R61     CG2R61     CG2R61     CG2R61
   58    29    30    34	 9 ;      HGR61     CG2R61     CG2R61     NG3C51
   58    29    30    31	 9 ;      HGR61     CG2R61     CG2R61     CG2R61
   31    30    34    35	 9 ;     CG2R61     CG2R61     NG3C51     NG3C51
   31    30    34    39	 9 ;     CG2R61     CG2R61     NG3C51     CG2R51
   29    30    34    35	 9 ;     CG2R61     CG2R61     NG3C51     NG3C51
   29    30    34    39	 9 ;     CG2R61     CG2R61     NG3C51     CG2R51
   34    30    31    32	 9 ;     NG3C51     CG2R61     CG2R61     CG2R61
   34    30    31    59	 9 ;     NG3C51     CG2R61     CG2R61      HGR61
   29    30    31    32	 9 ;     CG2R61     CG2R61     CG2R61     CG2R61
   29    30    31    59	 9 ;     CG2R61     CG2R61     CG2R61      HGR61
   30    31    32    33	 9 ;     CG2R61     CG2R61     CG2R61     CG2R61
   30    31    32    60	 9 ;     CG2R61     CG2R61     CG2R61      HGR61
   59    31    32    33	 9 ;      HGR61     CG2R61     CG2R61     CG2R61
   59    31    32    60	 9 ;      HGR61     CG2R61     CG2R61      HGR61
   31    32    33    28	 9 ;     CG2R61     CG2R61     CG2R61     CG2R61
   31    32    33    61	 9 ;     CG2R61     CG2R61     CG2R61      HGR61
   60    32    33    28	 9 ;      HGR61     CG2R61     CG2R61     CG2R61
   60    32    33    61	 9 ;      HGR61     CG2R61     CG2R61      HGR61
   39    34    35    37	 9 ;     CG2R51     NG3C51     NG3C51       HGP1
   39    34    35    36	 9 ;     CG2R51     NG3C51     NG3C51     CG3C52
   30    34    35    37	 9 ;     CG2R61     NG3C51     NG3C51       HGP1
   30    34    35    36	 9 ;     CG2R61     NG3C51     NG3C51     CG3C52
   35    34    39    38	 9 ;     NG3C51     NG3C51     CG2R51     CG2R51
   35    34    39    64	 9 ;     NG3C51     NG3C51     CG2R51      HGR52
   30    34    39    38	 9 ;     CG2R61     NG3C51     CG2R51     CG2R51
   30    34    39    64	 9 ;     CG2R61     NG3C51     CG2R51      HGR52
   37    35    36    38	 9 ;       HGP1     NG3C51     CG3C52     CG2R51
   37    35    36    62	 9 ;       HGP1     NG3C51     CG3C52       HGA2
   37    35    36    65	 9 ;       HGP1     NG3C51     CG3C52       HGA2
   34    35    36    38	 9 ;     NG3C51     NG3C51     CG3C52     CG2R51
   34    35    36    62	 9 ;     NG3C51     NG3C51     CG3C52       HGA2
   34    35    36    65	 9 ;     NG3C51     NG3C51     CG3C52       HGA2
   35    36    38    39	 9 ;     NG3C51     CG3C52     CG2R51     CG2R51
   35    36    38    63	 9 ;     NG3C51     CG3C52     CG2R51      HGR51
   62    36    38    39	 9 ;       HGA2     CG3C52     CG2R51     CG2R51
   62    36    38    63	 9 ;       HGA2     CG3C52     CG2R51      HGR51
   65    36    38    39	 9 ;       HGA2     CG3C52     CG2R51     CG2R51
   65    36    38    63	 9 ;       HGA2     CG3C52     CG2R51      HGR51
   36    38    39    34	 9 ;     CG3C52     CG2R51     CG2R51     NG3C51
   36    38    39    64	 9 ;     CG3C52     CG2R51     CG2R51      HGR52
   63    38    39    34	 9 ;      HGR51     CG2R51     CG2R51     NG3C51
   63    38    39    64	 9 ;      HGR51     CG2R51     CG2R51      HGR52

[ dihedrals ]
;	ai	  aj	ak	  al funct			  c0			c1			  c2			c3
   19    21    18    20	 2

