God Rules Over Mankind, Animals, Cosmos and Such
   65
    1LIG     N1    1  -1.802   0.592  -1.506
    1LIG     H1    2  -1.708   0.611  -1.467
    1LIG     H2    3  -1.865   0.637  -1.439
    1LIG     C1    4  -1.807   0.673  -1.634
    1LIG     C2    5  -1.728   0.803  -1.604
    1LIG     O1    6  -1.720   0.804  -1.460
    1LIG     H3    7  -1.803   0.760  -1.429
    1LIG     C3    8  -1.588   0.812  -1.673
    1LIG     C4    9  -1.538   0.669  -1.708
    1LIG     C5   10  -1.394   0.641  -1.671
    1LIG     C6   11  -1.317   0.552  -1.747
    1LIG     C7   12  -1.184   0.528  -1.712
    1LIG     F1   13  -1.112   0.442  -1.786
    1LIG     C8   14  -1.125   0.592  -1.605
    1LIG     C9   15  -1.201   0.681  -1.531
    1LIG    C10   16  -1.334   0.707  -1.563
    1LIG     F2   17  -1.145   0.745  -1.427
    1LIG     N2   18  -1.579   0.897  -1.794
    1LIG    C11   19  -1.574   1.034  -1.803
    1LIG     O2   20  -1.578   1.108  -1.705
    1LIG    C12   21  -1.560   1.087  -1.944
    1LIG     H4   22  -1.574   0.847  -1.882
    1LIG    C13   23  -1.832   0.444  -1.507
    1LIG    C14   24  -1.876   0.400  -1.367
    1LIG    C15   25  -1.980   0.292  -1.395
    1LIG     O3   26  -2.046   0.330  -1.516
    1LIG    C16   27  -1.965   0.424  -1.586
    1LIG    C17   28  -1.719   0.364  -1.572
    1LIG    C18   29  -1.593   0.361  -1.508
    1LIG    C19   30  -1.484   0.291  -1.562
    1LIG    C20   31  -1.499   0.220  -1.681
    1LIG    C21   32  -1.622   0.222  -1.747
    1LIG    C22   33  -1.731   0.293  -1.693
    1LIG     N3   34  -1.359   0.295  -1.493
    1LIG     N4   35  -1.255   0.220  -1.537
    1LIG    C23   36  -1.158   0.243  -1.448
    1LIG     HN   37  -1.252   0.158  -1.618
    1LIG    C24   38  -1.196   0.335  -1.350
    1LIG    C25   39  -1.325   0.369  -1.382
    1LIG    HC2   40  -1.910   0.697  -1.660
    1LIG    HC3   41  -1.759   0.618  -1.715
    1LIG     HC   42  -1.788   0.888  -1.636
    1LIG    HC1   43  -1.519   0.854  -1.599
    1LIG    HC4   44  -1.549   0.655  -1.815
    1LIG    HC5   45  -1.602   0.597  -1.656
    1LIG    HC6   46  -1.360   0.502  -1.832
    1LIG    HC7   47  -1.022   0.572  -1.578
    1LIG    HC8   48  -1.391   0.777  -1.505
    1LIG    HC9   49  -1.557   1.195  -1.942
    1LIG   HC10   50  -1.644   1.053  -2.004
    1LIG   HC11   51  -1.467   1.048  -1.987
    1LIG   HC12   52  -1.792   0.360  -1.311
    1LIG   HC13   53  -1.921   0.484  -1.314
    1LIG   HC14   54  -2.052   0.288  -1.313
    1LIG   HC15   55  -1.931   0.196  -1.407
    1LIG   HC16   56  -1.943   0.387  -1.686
    1LIG   HC17   57  -2.018   0.519  -1.593
    1LIG   HC18   58  -1.580   0.414  -1.415
    1LIG   HC19   59  -1.416   0.165  -1.723
    1LIG   HC20   60  -1.635   0.168  -1.839
    1LIG   HC21   61  -1.825   0.294  -1.745
    1LIG   HC22   62  -1.060   0.196  -1.452
    1LIG   HC23   63  -1.137   0.371  -1.267
    1LIG   HC24   64  -1.388   0.439  -1.330
    1LIG    H31   65  -1.194   0.161  -1.386
   0.00000   0.00000   0.00000
