; Created by cgenff_charmm2gmx.py

[ moleculetype ]
; Name			   nrexcl
LIG				 3

[ atoms ]
;	 nr		  type	resnr residue  atom   cgnr	   charge		mass  typeB    chargeB		massB
; residue	 1 LIG rtp LIG q	qsum
     1      SG3O2      1    LIG      S      1      0.113     32.060   ;
     2      OG2P1      1    LIG     O1      2     -0.300     15.999   ;
     3      OG2P1      1    LIG     O2      3     -0.300     15.999   ;
     4      CG321      1    LIG     C1      4      0.180     12.011   ;
     5      CG311      1    LIG     C2      5     -0.145     12.011   ;
     6      CG311      1    LIG     C3      6      0.100     12.011   ;
     7      CG314      1    LIG     C4      7     -0.043     12.011   ;
     8      CG321      1    LIG     C5      8      0.224     12.011   ;
     9      NG3P2      1    LIG      N      9     -0.444     14.007   ;
    10       HGP2      1    LIG     H1     10      0.346      1.008   ;
    11       HGP2      1    LIG     H2     11      0.346      1.008   ;
    12      CG324      1    LIG     C6     12      0.178     12.011   ;
    13     CG2R61      1    LIG     C7     13      0.035     12.011   ;
    14     CG2R61      1    LIG     C8     14     -0.117     12.011   ;
    15     CG2R61      1    LIG     C9     15     -0.017     12.011   ;
    16     CG2R61      1    LIG    C10     16     -0.114     12.011   ;
    17     CG2R61      1    LIG    C11     17     -0.109     12.011   ;
    18     CG2R61      1    LIG    C12     18     -0.119     12.011   ;
    19      CG311      1    LIG    C13     19     -0.088     12.011   ;
    20      CG331      1    LIG    C14     20     -0.264     12.011   ;
    21      CG331      1    LIG    C15     21     -0.264     12.011   ;
    22      OG311      1    LIG     O3     22     -0.595     15.999   ;
    23       HGP1      1    LIG     H3     23      0.422      1.008   ;
    24      CG321      1    LIG    C16     24     -0.087     12.011   ;
    25     CG2R61      1    LIG    C17     25     -0.035     12.011   ;
    26     CG2R61      1    LIG    C18     26     -0.121     12.011   ;
    27     CG2R61      1    LIG    C19     27     -0.113     12.011   ;
    28     CG2R61      1    LIG    C20     28      0.108     12.011   ;
    29     CG2R61      1    LIG    C21     29     -0.113     12.011   ;
    30     CG2R61      1    LIG    C22     30     -0.121     12.011   ;
    31      OG311      1    LIG     O4     31     -0.531     15.999   ;
    32       HGP1      1    LIG     H4     32      0.421      1.008   ;
    33       HGA2      1    LIG    HC2     33      0.090      1.008   ;
    34       HGA2      1    LIG    HC3     34      0.090      1.008   ;
    35       HGA1      1    LIG     HC     35      0.090      1.008   ;
    36       HGA1      1    LIG    HC1     36      0.090      1.008   ;
    37       HGA1      1    LIG    HC4     37      0.109      1.008   ;
    38       HGA2      1    LIG    HC5     38      0.090      1.008   ;
    39       HGA2      1    LIG    HC6     39      0.090      1.008   ;
    40       HGA2      1    LIG    HC7     40      0.090      1.008   ;
    41       HGA2      1    LIG    HC8     41      0.090      1.008   ;
    42      HGR61      1    LIG    HC9     42      0.116      1.008   ;
    43      HGR61      1    LIG   HC10     43      0.116      1.008   ;
    44      HGR61      1    LIG   HC11     44      0.116      1.008   ;
    45      HGR61      1    LIG   HC12     45      0.116      1.008   ;
    46       HGA1      1    LIG   HC13     46      0.090      1.008   ;
    47       HGA3      1    LIG   HC14     47      0.090      1.008   ;
    48       HGA3      1    LIG   HC15     48      0.090      1.008   ;
    49       HGA3      1    LIG   HC16     49      0.090      1.008   ;
    50       HGA3      1    LIG   HC17     50      0.090      1.008   ;
    51       HGA3      1    LIG   HC18     51      0.090      1.008   ;
    52       HGA3      1    LIG   HC19     52      0.090      1.008   ;
    53       HGA2      1    LIG   HC20     53      0.090      1.008   ;
    54       HGA2      1    LIG   HC21     54      0.090      1.008   ;
    55      HGR61      1    LIG   HC22     55      0.116      1.008   ;
    56      HGR61      1    LIG   HC23     56      0.116      1.008   ;
    57      HGR61      1    LIG   HC24     57      0.116      1.008   ;
    58      HGR61      1    LIG   HC25     58      0.116      1.008   ;

[ bonds ]
;	ai	  aj funct			  c0			c1			  c2			c3
    1     3	 1 ;       SG3O2      OG2P1
    1     4	 1 ;       SG3O2      CG321
    1     8	 1 ;       SG3O2      CG321
    1     2	 1 ;       SG3O2      OG2P1
    4     5	 1 ;       CG321      CG311
    4    33	 1 ;       CG321       HGA2
    4    34	 1 ;       CG321       HGA2
    5     6	 1 ;       CG311      CG311
    5    24	 1 ;       CG311      CG321
    5    35	 1 ;       CG311       HGA1
    6     7	 1 ;       CG311      CG314
    6    22	 1 ;       CG311      OG311
    6    36	 1 ;       CG311       HGA1
    7     8	 1 ;       CG314      CG321
    7     9	 1 ;       CG314      NG3P2
    7    37	 1 ;       CG314       HGA1
    8    38	 1 ;       CG321       HGA2
    8    39	 1 ;       CG321       HGA2
    9    11	 1 ;       NG3P2       HGP2
    9    10	 1 ;       NG3P2       HGP2
    9    12	 1 ;       NG3P2      CG324
   12    13	 1 ;       CG324     CG2R61
   12    40	 1 ;       CG324       HGA2
   12    41	 1 ;       CG324       HGA2
   13    18	 1 ;      CG2R61     CG2R61
   13    14	 1 ;      CG2R61     CG2R61
   14    15	 1 ;      CG2R61     CG2R61
   14    42	 1 ;      CG2R61      HGR61
   15    16	 1 ;      CG2R61     CG2R61
   15    19	 1 ;      CG2R61      CG311
   16    17	 1 ;      CG2R61     CG2R61
   16    43	 1 ;      CG2R61      HGR61
   17    18	 1 ;      CG2R61     CG2R61
   17    44	 1 ;      CG2R61      HGR61
   18    45	 1 ;      CG2R61      HGR61
   19    20	 1 ;       CG311      CG331
   19    21	 1 ;       CG311      CG331
   19    46	 1 ;       CG311       HGA1
   20    47	 1 ;       CG331       HGA3
   20    48	 1 ;       CG331       HGA3
   20    49	 1 ;       CG331       HGA3
   21    50	 1 ;       CG331       HGA3
   21    51	 1 ;       CG331       HGA3
   21    52	 1 ;       CG331       HGA3
   22    23	 1 ;       OG311       HGP1
   24    25	 1 ;       CG321     CG2R61
   24    53	 1 ;       CG321       HGA2
   24    54	 1 ;       CG321       HGA2
   25    26	 1 ;      CG2R61     CG2R61
   25    30	 1 ;      CG2R61     CG2R61
   26    27	 1 ;      CG2R61     CG2R61
   26    55	 1 ;      CG2R61      HGR61
   27    28	 1 ;      CG2R61     CG2R61
   27    56	 1 ;      CG2R61      HGR61
   28    31	 1 ;      CG2R61      OG311
   28    29	 1 ;      CG2R61     CG2R61
   29    30	 1 ;      CG2R61     CG2R61
   29    57	 1 ;      CG2R61      HGR61
   30    58	 1 ;      CG2R61      HGR61
   31    32	 1 ;       OG311       HGP1

[ pairs ]
;	ai	  aj funct			  c0			c1			  c2			c3
    1     6	 1
    1    24	 1
    1    35	 1
    1     9	 1
    1    37	 1
    2     5	 1
    2    33	 1
    2    34	 1
    2     7	 1
    2    38	 1
    2    39	 1
    3     5	 1
    3    33	 1
    3    34	 1
    3     7	 1
    3    38	 1
    3    39	 1
    4     7	 1
    4    38	 1
    4    39	 1
    4    22	 1
    4    36	 1
    4    25	 1
    4    53	 1
    4    54	 1
    5     8	 1
    5     9	 1
    5    37	 1
    5    23	 1
    5    26	 1
    5    30	 1
    6    33	 1
    6    34	 1
    6    25	 1
    6    53	 1
    6    54	 1
    6    38	 1
    6    39	 1
    6    11	 1
    6    10	 1
    6    12	 1
    7    24	 1
    7    35	 1
    7    23	 1
    7    13	 1
    7    40	 1
    7    41	 1
    8    33	 1
    8    34	 1
    8    22	 1
    8    36	 1
    8    11	 1
    8    10	 1
    8    12	 1
    9    22	 1
    9    36	 1
    9    38	 1
    9    39	 1
    9    18	 1
    9    14	 1
   10    37	 1
   10    13	 1
   10    40	 1
   10    41	 1
   11    37	 1
   11    13	 1
   11    40	 1
   11    41	 1
   12    37	 1
   12    17	 1
   12    45	 1
   12    15	 1
   12    42	 1
   13    16	 1
   13    19	 1
   13    44	 1
   14    40	 1
   14    41	 1
   14    17	 1
   14    45	 1
   14    43	 1
   14    20	 1
   14    21	 1
   14    46	 1
   15    18	 1
   15    44	 1
   15    47	 1
   15    48	 1
   15    49	 1
   15    50	 1
   15    51	 1
   15    52	 1
   16    42	 1
   16    20	 1
   16    21	 1
   16    46	 1
   16    45	 1
   17    19	 1
   18    40	 1
   18    41	 1
   18    42	 1
   18    43	 1
   19    42	 1
   19    43	 1
   20    50	 1
   20    51	 1
   20    52	 1
   21    47	 1
   21    48	 1
   21    49	 1
   22    24	 1
   22    35	 1
   22    37	 1
   23    36	 1
   24    33	 1
   24    34	 1
   24    36	 1
   24    27	 1
   24    55	 1
   24    29	 1
   24    58	 1
   25    35	 1
   25    28	 1
   25    56	 1
   25    57	 1
   26    53	 1
   26    54	 1
   26    29	 1
   26    58	 1
   26    31	 1
   27    30	 1
   27    32	 1
   27    57	 1
   28    55	 1
   28    58	 1
   29    56	 1
   29    32	 1
   30    53	 1
   30    54	 1
   30    55	 1
   30    31	 1
   31    56	 1
   31    57	 1
   33    35	 1
   34    35	 1
   35    36	 1
   35    53	 1
   35    54	 1
   36    37	 1
   37    38	 1
   37    39	 1
   43    44	 1
   44    45	 1
   46    47	 1
   46    48	 1
   46    49	 1
   46    50	 1
   46    51	 1
   46    52	 1
   55    56	 1
   57    58	 1

[ angles ]
;	ai	  aj	ak funct			c0			  c1			c2			  c3
    3     1     4	5 ;      OG2P1      SG3O2      CG321
    3     1     8	5 ;      OG2P1      SG3O2      CG321
    3     1     2	5 ;      OG2P1      SG3O2      OG2P1
    4     1     8	5 ;      CG321      SG3O2      CG321
    4     1     2	5 ;      CG321      SG3O2      OG2P1
    8     1     2	5 ;      CG321      SG3O2      OG2P1
    1     4     5	5 ;      SG3O2      CG321      CG311
    1     4    33	5 ;      SG3O2      CG321       HGA2
    1     4    34	5 ;      SG3O2      CG321       HGA2
    5     4    33	5 ;      CG311      CG321       HGA2
    5     4    34	5 ;      CG311      CG321       HGA2
   33     4    34	5 ;       HGA2      CG321       HGA2
    4     5     6	5 ;      CG321      CG311      CG311
    4     5    24	5 ;      CG321      CG311      CG321
    4     5    35	5 ;      CG321      CG311       HGA1
    6     5    24	5 ;      CG311      CG311      CG321
    6     5    35	5 ;      CG311      CG311       HGA1
   24     5    35	5 ;      CG321      CG311       HGA1
    5     6     7	5 ;      CG311      CG311      CG314
    5     6    22	5 ;      CG311      CG311      OG311
    5     6    36	5 ;      CG311      CG311       HGA1
    7     6    22	5 ;      CG314      CG311      OG311
    7     6    36	5 ;      CG314      CG311       HGA1
   22     6    36	5 ;      OG311      CG311       HGA1
    8     7     6	5 ;      CG321      CG314      CG311
    8     7     9	5 ;      CG321      CG314      NG3P2
    8     7    37	5 ;      CG321      CG314       HGA1
    6     7     9	5 ;      CG311      CG314      NG3P2
    6     7    37	5 ;      CG311      CG314       HGA1
    9     7    37	5 ;      NG3P2      CG314       HGA1
    1     8     7	5 ;      SG3O2      CG321      CG314
    1     8    38	5 ;      SG3O2      CG321       HGA2
    1     8    39	5 ;      SG3O2      CG321       HGA2
    7     8    38	5 ;      CG314      CG321       HGA2
    7     8    39	5 ;      CG314      CG321       HGA2
   38     8    39	5 ;       HGA2      CG321       HGA2
    7     9    11	5 ;      CG314      NG3P2       HGP2
    7     9    10	5 ;      CG314      NG3P2       HGP2
    7     9    12	5 ;      CG314      NG3P2      CG324
   11     9    10	5 ;       HGP2      NG3P2       HGP2
   11     9    12	5 ;       HGP2      NG3P2      CG324
   10     9    12	5 ;       HGP2      NG3P2      CG324
    9    12    13	5 ;      NG3P2      CG324     CG2R61
    9    12    40	5 ;      NG3P2      CG324       HGA2
    9    12    41	5 ;      NG3P2      CG324       HGA2
   13    12    40	5 ;     CG2R61      CG324       HGA2
   13    12    41	5 ;     CG2R61      CG324       HGA2
   40    12    41	5 ;       HGA2      CG324       HGA2
   12    13    18	5 ;      CG324     CG2R61     CG2R61
   12    13    14	5 ;      CG324     CG2R61     CG2R61
   18    13    14	5 ;     CG2R61     CG2R61     CG2R61
   13    14    15	5 ;     CG2R61     CG2R61     CG2R61
   13    14    42	5 ;     CG2R61     CG2R61      HGR61
   15    14    42	5 ;     CG2R61     CG2R61      HGR61
   14    15    16	5 ;     CG2R61     CG2R61     CG2R61
   14    15    19	5 ;     CG2R61     CG2R61      CG311
   16    15    19	5 ;     CG2R61     CG2R61      CG311
   17    16    15	5 ;     CG2R61     CG2R61     CG2R61
   17    16    43	5 ;     CG2R61     CG2R61      HGR61
   15    16    43	5 ;     CG2R61     CG2R61      HGR61
   18    17    16	5 ;     CG2R61     CG2R61     CG2R61
   18    17    44	5 ;     CG2R61     CG2R61      HGR61
   16    17    44	5 ;     CG2R61     CG2R61      HGR61
   13    18    17	5 ;     CG2R61     CG2R61     CG2R61
   13    18    45	5 ;     CG2R61     CG2R61      HGR61
   17    18    45	5 ;     CG2R61     CG2R61      HGR61
   15    19    20	5 ;     CG2R61      CG311      CG331
   15    19    21	5 ;     CG2R61      CG311      CG331
   15    19    46	5 ;     CG2R61      CG311       HGA1
   20    19    21	5 ;      CG331      CG311      CG331
   20    19    46	5 ;      CG331      CG311       HGA1
   21    19    46	5 ;      CG331      CG311       HGA1
   19    20    47	5 ;      CG311      CG331       HGA3
   19    20    48	5 ;      CG311      CG331       HGA3
   19    20    49	5 ;      CG311      CG331       HGA3
   47    20    48	5 ;       HGA3      CG331       HGA3
   47    20    49	5 ;       HGA3      CG331       HGA3
   48    20    49	5 ;       HGA3      CG331       HGA3
   19    21    50	5 ;      CG311      CG331       HGA3
   19    21    51	5 ;      CG311      CG331       HGA3
   19    21    52	5 ;      CG311      CG331       HGA3
   50    21    51	5 ;       HGA3      CG331       HGA3
   50    21    52	5 ;       HGA3      CG331       HGA3
   51    21    52	5 ;       HGA3      CG331       HGA3
    6    22    23	5 ;      CG311      OG311       HGP1
    5    24    25	5 ;      CG311      CG321     CG2R61
    5    24    53	5 ;      CG311      CG321       HGA2
    5    24    54	5 ;      CG311      CG321       HGA2
   25    24    53	5 ;     CG2R61      CG321       HGA2
   25    24    54	5 ;     CG2R61      CG321       HGA2
   53    24    54	5 ;       HGA2      CG321       HGA2
   26    25    24	5 ;     CG2R61     CG2R61      CG321
   26    25    30	5 ;     CG2R61     CG2R61     CG2R61
   24    25    30	5 ;      CG321     CG2R61     CG2R61
   27    26    25	5 ;     CG2R61     CG2R61     CG2R61
   27    26    55	5 ;     CG2R61     CG2R61      HGR61
   25    26    55	5 ;     CG2R61     CG2R61      HGR61
   26    27    28	5 ;     CG2R61     CG2R61     CG2R61
   26    27    56	5 ;     CG2R61     CG2R61      HGR61
   28    27    56	5 ;     CG2R61     CG2R61      HGR61
   27    28    31	5 ;     CG2R61     CG2R61      OG311
   27    28    29	5 ;     CG2R61     CG2R61     CG2R61
   31    28    29	5 ;      OG311     CG2R61     CG2R61
   28    29    30	5 ;     CG2R61     CG2R61     CG2R61
   28    29    57	5 ;     CG2R61     CG2R61      HGR61
   30    29    57	5 ;     CG2R61     CG2R61      HGR61
   25    30    29	5 ;     CG2R61     CG2R61     CG2R61
   25    30    58	5 ;     CG2R61     CG2R61      HGR61
   29    30    58	5 ;     CG2R61     CG2R61      HGR61
   32    31    28	5 ;       HGP1      OG311     CG2R61

[ dihedrals ]
;	ai	  aj	ak	  al funct			  c0			c1			  c2			c3			  c4			c5
    3     1     4     5	 9 ;      OG2P1      SG3O2      CG321      CG311
    3     1     4    33	 9 ;      OG2P1      SG3O2      CG321       HGA2
    3     1     4    34	 9 ;      OG2P1      SG3O2      CG321       HGA2
    8     1     4     5	 9 ;      CG321      SG3O2      CG321      CG311
    8     1     4    33	 9 ;      CG321      SG3O2      CG321       HGA2
    8     1     4    34	 9 ;      CG321      SG3O2      CG321       HGA2
    2     1     4     5	 9 ;      OG2P1      SG3O2      CG321      CG311
    2     1     4    33	 9 ;      OG2P1      SG3O2      CG321       HGA2
    2     1     4    34	 9 ;      OG2P1      SG3O2      CG321       HGA2
    3     1     8     7	 9 ;      OG2P1      SG3O2      CG321      CG314
    3     1     8    38	 9 ;      OG2P1      SG3O2      CG321       HGA2
    3     1     8    39	 9 ;      OG2P1      SG3O2      CG321       HGA2
    4     1     8     7	 9 ;      CG321      SG3O2      CG321      CG314
    4     1     8    38	 9 ;      CG321      SG3O2      CG321       HGA2
    4     1     8    39	 9 ;      CG321      SG3O2      CG321       HGA2
    2     1     8     7	 9 ;      OG2P1      SG3O2      CG321      CG314
    2     1     8    38	 9 ;      OG2P1      SG3O2      CG321       HGA2
    2     1     8    39	 9 ;      OG2P1      SG3O2      CG321       HGA2
    1     4     5     6	 9 ;      SG3O2      CG321      CG311      CG311
    1     4     5    24	 9 ;      SG3O2      CG321      CG311      CG321
    1     4     5    35	 9 ;      SG3O2      CG321      CG311       HGA1
   33     4     5     6	 9 ;       HGA2      CG321      CG311      CG311
   33     4     5    24	 9 ;       HGA2      CG321      CG311      CG321
   33     4     5    35	 9 ;       HGA2      CG321      CG311       HGA1
   34     4     5     6	 9 ;       HGA2      CG321      CG311      CG311
   34     4     5    24	 9 ;       HGA2      CG321      CG311      CG321
   34     4     5    35	 9 ;       HGA2      CG321      CG311       HGA1
    4     5     6     7	 9 ;      CG321      CG311      CG311      CG314
    4     5     6    22	 9 ;      CG321      CG311      CG311      OG311
    4     5     6    36	 9 ;      CG321      CG311      CG311       HGA1
   24     5     6     7	 9 ;      CG321      CG311      CG311      CG314
   24     5     6    22	 9 ;      CG321      CG311      CG311      OG311
   24     5     6    36	 9 ;      CG321      CG311      CG311       HGA1
   35     5     6     7	 9 ;       HGA1      CG311      CG311      CG314
   35     5     6    22	 9 ;       HGA1      CG311      CG311      OG311
   35     5     6    36	 9 ;       HGA1      CG311      CG311       HGA1
    4     5    24    25	 9 ;      CG321      CG311      CG321     CG2R61
    4     5    24    53	 9 ;      CG321      CG311      CG321       HGA2
    4     5    24    54	 9 ;      CG321      CG311      CG321       HGA2
    6     5    24    25	 9 ;      CG311      CG311      CG321     CG2R61
    6     5    24    53	 9 ;      CG311      CG311      CG321       HGA2
    6     5    24    54	 9 ;      CG311      CG311      CG321       HGA2
   35     5    24    25	 9 ;       HGA1      CG311      CG321     CG2R61
   35     5    24    53	 9 ;       HGA1      CG311      CG321       HGA2
   35     5    24    54	 9 ;       HGA1      CG311      CG321       HGA2
    5     6     7     8	 9 ;      CG311      CG311      CG314      CG321
    5     6     7     9	 9 ;      CG311      CG311      CG314      NG3P2
    5     6     7    37	 9 ;      CG311      CG311      CG314       HGA1
   22     6     7     8	 9 ;      OG311      CG311      CG314      CG321
   22     6     7     9	 9 ;      OG311      CG311      CG314      NG3P2
   22     6     7    37	 9 ;      OG311      CG311      CG314       HGA1
   36     6     7     8	 9 ;       HGA1      CG311      CG314      CG321
   36     6     7     9	 9 ;       HGA1      CG311      CG314      NG3P2
   36     6     7    37	 9 ;       HGA1      CG311      CG314       HGA1
    5     6    22    23	 9 ;      CG311      CG311      OG311       HGP1
    7     6    22    23	 9 ;      CG314      CG311      OG311       HGP1
   36     6    22    23	 9 ;       HGA1      CG311      OG311       HGP1
    6     7     8     1	 9 ;      CG311      CG314      CG321      SG3O2
    6     7     8    38	 9 ;      CG311      CG314      CG321       HGA2
    6     7     8    39	 9 ;      CG311      CG314      CG321       HGA2
    9     7     8     1	 9 ;      NG3P2      CG314      CG321      SG3O2
    9     7     8    38	 9 ;      NG3P2      CG314      CG321       HGA2
    9     7     8    39	 9 ;      NG3P2      CG314      CG321       HGA2
   37     7     8     1	 9 ;       HGA1      CG314      CG321      SG3O2
   37     7     8    38	 9 ;       HGA1      CG314      CG321       HGA2
   37     7     8    39	 9 ;       HGA1      CG314      CG321       HGA2
    8     7     9    11	 9 ;      CG321      CG314      NG3P2       HGP2
    8     7     9    10	 9 ;      CG321      CG314      NG3P2       HGP2
    8     7     9    12	 9 ;      CG321      CG314      NG3P2      CG324
    6     7     9    11	 9 ;      CG311      CG314      NG3P2       HGP2
    6     7     9    10	 9 ;      CG311      CG314      NG3P2       HGP2
    6     7     9    12	 9 ;      CG311      CG314      NG3P2      CG324
   37     7     9    11	 9 ;       HGA1      CG314      NG3P2       HGP2
   37     7     9    10	 9 ;       HGA1      CG314      NG3P2       HGP2
   37     7     9    12	 9 ;       HGA1      CG314      NG3P2      CG324
    7     9    12    13	 9 ;      CG314      NG3P2      CG324     CG2R61
    7     9    12    40	 9 ;      CG314      NG3P2      CG324       HGA2
    7     9    12    41	 9 ;      CG314      NG3P2      CG324       HGA2
   11     9    12    13	 9 ;       HGP2      NG3P2      CG324     CG2R61
   11     9    12    40	 9 ;       HGP2      NG3P2      CG324       HGA2
   11     9    12    41	 9 ;       HGP2      NG3P2      CG324       HGA2
   10     9    12    13	 9 ;       HGP2      NG3P2      CG324     CG2R61
   10     9    12    40	 9 ;       HGP2      NG3P2      CG324       HGA2
   10     9    12    41	 9 ;       HGP2      NG3P2      CG324       HGA2
    9    12    13    18	 9 ;      NG3P2      CG324     CG2R61     CG2R61
    9    12    13    14	 9 ;      NG3P2      CG324     CG2R61     CG2R61
   40    12    13    18	 9 ;       HGA2      CG324     CG2R61     CG2R61
   40    12    13    14	 9 ;       HGA2      CG324     CG2R61     CG2R61
   41    12    13    18	 9 ;       HGA2      CG324     CG2R61     CG2R61
   41    12    13    14	 9 ;       HGA2      CG324     CG2R61     CG2R61
   12    13    18    17	 9 ;      CG324     CG2R61     CG2R61     CG2R61
   12    13    18    45	 9 ;      CG324     CG2R61     CG2R61      HGR61
   14    13    18    17	 9 ;     CG2R61     CG2R61     CG2R61     CG2R61
   14    13    18    45	 9 ;     CG2R61     CG2R61     CG2R61      HGR61
   12    13    14    15	 9 ;      CG324     CG2R61     CG2R61     CG2R61
   12    13    14    42	 9 ;      CG324     CG2R61     CG2R61      HGR61
   18    13    14    15	 9 ;     CG2R61     CG2R61     CG2R61     CG2R61
   18    13    14    42	 9 ;     CG2R61     CG2R61     CG2R61      HGR61
   13    14    15    16	 9 ;     CG2R61     CG2R61     CG2R61     CG2R61
   13    14    15    19	 9 ;     CG2R61     CG2R61     CG2R61      CG311
   42    14    15    16	 9 ;      HGR61     CG2R61     CG2R61     CG2R61
   42    14    15    19	 9 ;      HGR61     CG2R61     CG2R61      CG311
   14    15    16    17	 9 ;     CG2R61     CG2R61     CG2R61     CG2R61
   14    15    16    43	 9 ;     CG2R61     CG2R61     CG2R61      HGR61
   19    15    16    17	 9 ;      CG311     CG2R61     CG2R61     CG2R61
   19    15    16    43	 9 ;      CG311     CG2R61     CG2R61      HGR61
   14    15    19    20	 9 ;     CG2R61     CG2R61      CG311      CG331
   14    15    19    21	 9 ;     CG2R61     CG2R61      CG311      CG331
   14    15    19    46	 9 ;     CG2R61     CG2R61      CG311       HGA1
   16    15    19    20	 9 ;     CG2R61     CG2R61      CG311      CG331
   16    15    19    21	 9 ;     CG2R61     CG2R61      CG311      CG331
   16    15    19    46	 9 ;     CG2R61     CG2R61      CG311       HGA1
   15    16    17    18	 9 ;     CG2R61     CG2R61     CG2R61     CG2R61
   15    16    17    44	 9 ;     CG2R61     CG2R61     CG2R61      HGR61
   43    16    17    18	 9 ;      HGR61     CG2R61     CG2R61     CG2R61
   43    16    17    44	 9 ;      HGR61     CG2R61     CG2R61      HGR61
   16    17    18    13	 9 ;     CG2R61     CG2R61     CG2R61     CG2R61
   16    17    18    45	 9 ;     CG2R61     CG2R61     CG2R61      HGR61
   44    17    18    13	 9 ;      HGR61     CG2R61     CG2R61     CG2R61
   44    17    18    45	 9 ;      HGR61     CG2R61     CG2R61      HGR61
   15    19    20    47	 9 ;     CG2R61      CG311      CG331       HGA3
   15    19    20    48	 9 ;     CG2R61      CG311      CG331       HGA3
   15    19    20    49	 9 ;     CG2R61      CG311      CG331       HGA3
   21    19    20    47	 9 ;      CG331      CG311      CG331       HGA3
   21    19    20    48	 9 ;      CG331      CG311      CG331       HGA3
   21    19    20    49	 9 ;      CG331      CG311      CG331       HGA3
   46    19    20    47	 9 ;       HGA1      CG311      CG331       HGA3
   46    19    20    48	 9 ;       HGA1      CG311      CG331       HGA3
   46    19    20    49	 9 ;       HGA1      CG311      CG331       HGA3
   15    19    21    50	 9 ;     CG2R61      CG311      CG331       HGA3
   15    19    21    51	 9 ;     CG2R61      CG311      CG331       HGA3
   15    19    21    52	 9 ;     CG2R61      CG311      CG331       HGA3
   20    19    21    50	 9 ;      CG331      CG311      CG331       HGA3
   20    19    21    51	 9 ;      CG331      CG311      CG331       HGA3
   20    19    21    52	 9 ;      CG331      CG311      CG331       HGA3
   46    19    21    50	 9 ;       HGA1      CG311      CG331       HGA3
   46    19    21    51	 9 ;       HGA1      CG311      CG331       HGA3
   46    19    21    52	 9 ;       HGA1      CG311      CG331       HGA3
    5    24    25    26	 9 ;      CG311      CG321     CG2R61     CG2R61
    5    24    25    30	 9 ;      CG311      CG321     CG2R61     CG2R61
   53    24    25    26	 9 ;       HGA2      CG321     CG2R61     CG2R61
   53    24    25    30	 9 ;       HGA2      CG321     CG2R61     CG2R61
   54    24    25    26	 9 ;       HGA2      CG321     CG2R61     CG2R61
   54    24    25    30	 9 ;       HGA2      CG321     CG2R61     CG2R61
   24    25    26    27	 9 ;      CG321     CG2R61     CG2R61     CG2R61
   24    25    26    55	 9 ;      CG321     CG2R61     CG2R61      HGR61
   30    25    26    27	 9 ;     CG2R61     CG2R61     CG2R61     CG2R61
   30    25    26    55	 9 ;     CG2R61     CG2R61     CG2R61      HGR61
   26    25    30    29	 9 ;     CG2R61     CG2R61     CG2R61     CG2R61
   26    25    30    58	 9 ;     CG2R61     CG2R61     CG2R61      HGR61
   24    25    30    29	 9 ;      CG321     CG2R61     CG2R61     CG2R61
   24    25    30    58	 9 ;      CG321     CG2R61     CG2R61      HGR61
   25    26    27    28	 9 ;     CG2R61     CG2R61     CG2R61     CG2R61
   25    26    27    56	 9 ;     CG2R61     CG2R61     CG2R61      HGR61
   55    26    27    28	 9 ;      HGR61     CG2R61     CG2R61     CG2R61
   55    26    27    56	 9 ;      HGR61     CG2R61     CG2R61      HGR61
   26    27    28    31	 9 ;     CG2R61     CG2R61     CG2R61      OG311
   26    27    28    29	 9 ;     CG2R61     CG2R61     CG2R61     CG2R61
   56    27    28    31	 9 ;      HGR61     CG2R61     CG2R61      OG311
   56    27    28    29	 9 ;      HGR61     CG2R61     CG2R61     CG2R61
   27    28    31    32	 9 ;     CG2R61     CG2R61      OG311       HGP1
   29    28    31    32	 9 ;     CG2R61     CG2R61      OG311       HGP1
   27    28    29    30	 9 ;     CG2R61     CG2R61     CG2R61     CG2R61
   27    28    29    57	 9 ;     CG2R61     CG2R61     CG2R61      HGR61
   31    28    29    30	 9 ;      OG311     CG2R61     CG2R61     CG2R61
   31    28    29    57	 9 ;      OG311     CG2R61     CG2R61      HGR61
   28    29    30    25	 9 ;     CG2R61     CG2R61     CG2R61     CG2R61
   28    29    30    58	 9 ;     CG2R61     CG2R61     CG2R61      HGR61
   57    29    30    25	 9 ;      HGR61     CG2R61     CG2R61     CG2R61
   57    29    30    58	 9 ;      HGR61     CG2R61     CG2R61      HGR61

