Gnomes, ROck Monsters And Chili Sauce
   58
    1LIG      S    1  -1.190   0.542  -1.560
    1LIG     O1    2  -1.285   0.518  -1.452
    1LIG     O2    3  -1.067   0.613  -1.537
    1LIG     C1    4  -1.156   0.387  -1.642
    1LIG     C2    5  -1.282   0.317  -1.694
    1LIG     C3    6  -1.361   0.415  -1.787
    1LIG     C4    7  -1.403   0.553  -1.728
    1LIG     C5    8  -1.282   0.632  -1.681
    1LIG      N    9  -1.512   0.536  -1.625
    1LIG     H1   10  -1.510   0.438  -1.592
    1LIG     H2   11  -1.495   0.595  -1.543
    1LIG     C6   12  -1.654   0.570  -1.660
    1LIG     C7   13  -1.739   0.450  -1.631
    1LIG     C8   14  -1.829   0.452  -1.524
    1LIG     C9   15  -1.925   0.351  -1.509
    1LIG    C10   16  -1.931   0.248  -1.604
    1LIG    C11   17  -1.837   0.242  -1.707
    1LIG    C12   18  -1.741   0.342  -1.720
    1LIG    C13   19  -2.019   0.352  -1.389
    1LIG    C14   20  -2.114   0.472  -1.393
    1LIG    C15   21  -2.095   0.220  -1.380
    1LIG     O3   22  -1.475   0.359  -1.850
    1LIG     H3   23  -1.513   0.415  -1.919
    1LIG    C16   24  -1.364   0.246  -1.582
    1LIG    C17   25  -1.285   0.148  -1.498
    1LIG    C18   26  -1.233   0.031  -1.556
    1LIG    C19   27  -1.165  -0.064  -1.478
    1LIG    C20   28  -1.148  -0.040  -1.342
    1LIG    C21   29  -1.193   0.077  -1.284
    1LIG    C22   30  -1.261   0.172  -1.362
    1LIG     O4   31  -1.087  -0.131  -1.261
    1LIG     H4   32  -0.998  -0.099  -1.237
    1LIG    HC2   33  -1.106   0.321  -1.570
    1LIG    HC3   34  -1.088   0.406  -1.725
    1LIG     HC   35  -1.247   0.237  -1.760
    1LIG    HC1   36  -1.293   0.439  -1.868
    1LIG    HC4   37  -1.447   0.610  -1.810
    1LIG    HC5   38  -1.315   0.726  -1.638
    1LIG    HC6   39  -1.217   0.653  -1.767
    1LIG    HC7   40  -1.687   0.655  -1.600
    1LIG    HC8   41  -1.660   0.596  -1.766
    1LIG    HC9   42  -1.825   0.533  -1.452
    1LIG   HC10   43  -2.008   0.173  -1.597
    1LIG   HC11   44  -1.839   0.160  -1.777
    1LIG   HC12   45  -1.668   0.336  -1.799
    1LIG   HC13   46  -1.958   0.361  -1.299
    1LIG   HC14   47  -2.056   0.564  -1.399
    1LIG   HC15   48  -2.179   0.464  -1.480
    1LIG   HC16   49  -2.174   0.473  -1.302
    1LIG   HC17   50  -2.156   0.219  -1.290
    1LIG   HC18   51  -2.024   0.137  -1.377
    1LIG   HC19   52  -2.159   0.209  -1.467
    1LIG   HC20   53  -1.446   0.192  -1.629
    1LIG   HC21   54  -1.406   0.322  -1.516
    1LIG   HC22   55  -1.246   0.013  -1.661
    1LIG   HC23   56  -1.126  -0.154  -1.523
    1LIG   HC24   57  -1.176   0.096  -1.179
    1LIG   HC25   58  -1.296   0.263  -1.317
   0.00000   0.00000   0.00000
