; Created by cgenff_charmm2gmx.py

[ moleculetype ]
; Name			   nrexcl
LIG				 3

[ atoms ]
;	 nr		  type	resnr residue  atom   cgnr	   charge		mass  typeB    chargeB		massB
; residue	 1 LIG rtp LIG q	qsum
     1      NG3P2      1    LIG     N1      1     -0.450     14.007   ;
     2       HGP2      1    LIG     H1      2      0.341      1.008   ;
     3       HGP2      1    LIG     H2      3      0.341      1.008   ;
     4      CG324      1    LIG     C1      4      0.208     12.011   ;
     5      CG311      1    LIG     C2      5      0.089     12.011   ;
     6      OG311      1    LIG     O1      6     -0.625     15.999   ;
     7       HGP1      1    LIG     H3      7      0.415      1.008   ;
     8      CG311      1    LIG     C3      8     -0.007     12.011   ;
     9      CG321      1    LIG     C4      9     -0.153     12.011   ;
    10     CG2R61      1    LIG     C5     10      0.057     12.011   ;
    11     CG2R61      1    LIG     C6     11     -0.218     12.011   ;
    12     CG2R66      1    LIG     C7     12      0.261     12.011   ;
    13       FGR1      1    LIG     F1     13     -0.210     18.998   ;
    14     CG2R61      1    LIG     C8     14     -0.240     12.011   ;
    15     CG2R66      1    LIG     C9     15      0.261     12.011   ;
    16       FGR1      1    LIG     F2     16     -0.210     18.998   ;
    17     CG2R61      1    LIG    C10     17     -0.218     12.011   ;
    18      NG2S1      1    LIG     N2     18     -0.339     14.007   ;
    19      CG2O1      1    LIG    C11     19      0.488     12.011   ;
    20      OG2D1      1    LIG     O2     20     -0.509     15.999   ;
    21      CG331      1    LIG    C12     21     -0.270     12.011   ;
    22       HGP1      1    LIG     H4     22      0.261      1.008   ;
    23      CG301      1    LIG    C13     23      0.289     12.011   ;
    24      CG321      1    LIG    C14     24     -0.143     12.011   ;
    25      CG321      1    LIG    C15     25     -0.146     12.011   ;
    26      CG311      1    LIG    C16     26      0.076     12.011   ;
    27      CG321      1    LIG    C17     27     -0.146     12.011   ;
    28      CG321      1    LIG    C18     28     -0.143     12.011   ;
    29      SG3O2      1    LIG      S     29      0.136     32.060   ;
    30      OG2P1      1    LIG     O3     30     -0.339     15.999   ;
    31      OG2P1      1    LIG     O4     31     -0.339     15.999   ;
    32      CG331      1    LIG    C19     32     -0.004     12.011   ;
    33     CG2R61      1    LIG    C20     33      0.085     12.011   ;
    34     CG2R61      1    LIG    C21     34     -0.134     12.011   ;
    35     CG2R61      1    LIG    C22     35      0.082     12.011   ;
    36     CG2R61      1    LIG    C23     36     -0.121     12.011   ;
    37     CG2R61      1    LIG    C24     37     -0.110     12.011   ;
    38     CG2R61      1    LIG    C25     38     -0.129     12.011   ;
    39      CG301      1    LIG    C26     39     -0.018     12.011   ;
    40      CG331      1    LIG    C27     40     -0.289     12.011   ;
    41      CG331      1    LIG    C28     41     -0.289     12.011   ;
    42      CG331      1    LIG    C29     42     -0.289     12.011   ;
    43       HGA2      1    LIG    HC2     43      0.090      1.008   ;
    44       HGA2      1    LIG    HC3     44      0.090      1.008   ;
    45       HGA1      1    LIG     HC     45      0.090      1.008   ;
    46       HGA1      1    LIG    HC1     46      0.090      1.008   ;
    47       HGA2      1    LIG    HC4     47      0.090      1.008   ;
    48       HGA2      1    LIG    HC5     48      0.090      1.008   ;
    49      HGR62      1    LIG    HC6     49      0.174      1.008   ;
    50      HGR62      1    LIG    HC7     50      0.186      1.008   ;
    51      HGR62      1    LIG    HC8     51      0.174      1.008   ;
    52       HGA2      1    LIG    HC9     52      0.090      1.008   ;
    53       HGA2      1    LIG   HC10     53      0.090      1.008   ;
    54       HGA2      1    LIG   HC11     54      0.090      1.008   ;
    55       HGA2      1    LIG   HC12     55      0.090      1.008   ;
    56       HGA1      1    LIG   HC13     56      0.090      1.008   ;
    57       HGA2      1    LIG   HC14     57      0.090      1.008   ;
    58       HGA2      1    LIG   HC15     58      0.090      1.008   ;
    59       HGA2      1    LIG   HC16     59      0.090      1.008   ;
    60       HGA2      1    LIG   HC17     60      0.090      1.008   ;
    61      HGR61      1    LIG   HC18     61      0.116      1.008   ;
    62      HGR61      1    LIG   HC19     62      0.116      1.008   ;
    63      HGR61      1    LIG   HC20     63      0.116      1.008   ;
    64      HGR61      1    LIG   HC21     64      0.116      1.008   ;
    65       HGA3      1    LIG   HC22     65      0.090      1.008   ;
    66       HGA3      1    LIG   HC23     66      0.090      1.008   ;
    67       HGA3      1    LIG   HC24     67      0.090      1.008   ;
    68       HGA3      1    LIG   HC25     68      0.090      1.008   ;
    69       HGA3      1    LIG   HC26     69      0.090      1.008   ;
    70       HGA3      1    LIG   HC27     70      0.090      1.008   ;
    71       HGA3      1    LIG   HC28     71      0.090      1.008   ;
    72       HGA3      1    LIG   HC29     72      0.090      1.008   ;
    73       HGA3      1    LIG   HC30     73      0.090      1.008   ;
    74       HGA3      1    LIG   HC31     74      0.090      1.008   ;
    75       HGA3      1    LIG   HC32     75      0.090      1.008   ;
    76       HGA3      1    LIG   HC33     76      0.090      1.008   ;
    77       HGA3      1    LIG   HC34     77      0.090      1.008   ;
    78       HGA3      1    LIG   HC35     78      0.090      1.008   ;
    79       HGA3      1    LIG   HC36     79      0.090      1.008   ;

[ bonds ]
;	ai	  aj funct			  c0			c1			  c2			c3
    1     2	 1 ;       NG3P2       HGP2
    1     4	 1 ;       NG3P2      CG324
    1    23	 1 ;       NG3P2      CG301
    1     3	 1 ;       NG3P2       HGP2
    4     5	 1 ;       CG324      CG311
    4    43	 1 ;       CG324       HGA2
    4    44	 1 ;       CG324       HGA2
    5     8	 1 ;       CG311      CG311
    5     6	 1 ;       CG311      OG311
    5    45	 1 ;       CG311       HGA1
    6     7	 1 ;       OG311       HGP1
    8    18	 1 ;       CG311      NG2S1
    8     9	 1 ;       CG311      CG321
    8    46	 1 ;       CG311       HGA1
    9    10	 1 ;       CG321     CG2R61
    9    47	 1 ;       CG321       HGA2
    9    48	 1 ;       CG321       HGA2
   10    17	 1 ;      CG2R61     CG2R61
   10    11	 1 ;      CG2R61     CG2R61
   11    12	 1 ;      CG2R61     CG2R66
   11    49	 1 ;      CG2R61      HGR62
   12    14	 1 ;      CG2R66     CG2R61
   12    13	 1 ;      CG2R66       FGR1
   14    15	 1 ;      CG2R61     CG2R66
   14    50	 1 ;      CG2R61      HGR62
   15    17	 1 ;      CG2R66     CG2R61
   15    16	 1 ;      CG2R66       FGR1
   17    51	 1 ;      CG2R61      HGR62
   18    19	 1 ;       NG2S1      CG2O1
   18    22	 1 ;       NG2S1       HGP1
   19    21	 1 ;       CG2O1      CG331
   19    20	 1 ;       CG2O1      OG2D1
   21    77	 1 ;       CG331       HGA3
   21    78	 1 ;       CG331       HGA3
   21    79	 1 ;       CG331       HGA3
   23    28	 1 ;       CG301      CG321
   23    24	 1 ;       CG301      CG321
   23    33	 1 ;       CG301     CG2R61
   24    25	 1 ;       CG321      CG321
   24    52	 1 ;       CG321       HGA2
   24    53	 1 ;       CG321       HGA2
   25    26	 1 ;       CG321      CG311
   25    54	 1 ;       CG321       HGA2
   25    55	 1 ;       CG321       HGA2
   26    27	 1 ;       CG311      CG321
   26    29	 1 ;       CG311      SG3O2
   26    56	 1 ;       CG311       HGA1
   27    28	 1 ;       CG321      CG321
   27    57	 1 ;       CG321       HGA2
   27    58	 1 ;       CG321       HGA2
   28    59	 1 ;       CG321       HGA2
   28    60	 1 ;       CG321       HGA2
   29    32	 1 ;       SG3O2      CG331
   29    31	 1 ;       SG3O2      OG2P1
   29    30	 1 ;       SG3O2      OG2P1
   32    71	 1 ;       CG331       HGA3
   32    72	 1 ;       CG331       HGA3
   32    73	 1 ;       CG331       HGA3
   33    38	 1 ;      CG2R61     CG2R61
   33    34	 1 ;      CG2R61     CG2R61
   34    35	 1 ;      CG2R61     CG2R61
   34    61	 1 ;      CG2R61      HGR61
   35    36	 1 ;      CG2R61     CG2R61
   35    39	 1 ;      CG2R61      CG301
   36    37	 1 ;      CG2R61     CG2R61
   36    62	 1 ;      CG2R61      HGR61
   37    38	 1 ;      CG2R61     CG2R61
   37    63	 1 ;      CG2R61      HGR61
   38    64	 1 ;      CG2R61      HGR61
   39    41	 1 ;       CG301      CG331
   39    42	 1 ;       CG301      CG331
   39    40	 1 ;       CG301      CG331
   40    68	 1 ;       CG331       HGA3
   40    69	 1 ;       CG331       HGA3
   40    70	 1 ;       CG331       HGA3
   41    65	 1 ;       CG331       HGA3
   41    66	 1 ;       CG331       HGA3
   41    67	 1 ;       CG331       HGA3
   42    74	 1 ;       CG331       HGA3
   42    75	 1 ;       CG331       HGA3
   42    76	 1 ;       CG331       HGA3

[ pairs ]
;	ai	  aj funct			  c0			c1			  c2			c3
    1     8	 1
    1     6	 1
    1    45	 1
    1    27	 1
    1    59	 1
    1    60	 1
    1    25	 1
    1    52	 1
    1    53	 1
    1    38	 1
    1    34	 1
    2     5	 1
    2    43	 1
    2    44	 1
    2    28	 1
    2    24	 1
    2    33	 1
    3     5	 1
    3    43	 1
    3    44	 1
    3    28	 1
    3    24	 1
    3    33	 1
    4    28	 1
    4    24	 1
    4    33	 1
    4    18	 1
    4     9	 1
    4    46	 1
    4     7	 1
    5    23	 1
    5    19	 1
    5    22	 1
    5    10	 1
    5    47	 1
    5    48	 1
    6    43	 1
    6    44	 1
    6    18	 1
    6     9	 1
    6    46	 1
    7     8	 1
    7    45	 1
    8    43	 1
    8    44	 1
    8    17	 1
    8    11	 1
    8    21	 1
    8    20	 1
    9    45	 1
    9    19	 1
    9    22	 1
    9    15	 1
    9    51	 1
    9    12	 1
    9    49	 1
   10    18	 1
   10    46	 1
   10    14	 1
   10    13	 1
   10    16	 1
   11    47	 1
   11    48	 1
   11    15	 1
   11    51	 1
   11    50	 1
   12    17	 1
   12    16	 1
   13    49	 1
   13    15	 1
   13    50	 1
   14    49	 1
   14    51	 1
   16    50	 1
   16    51	 1
   17    47	 1
   17    48	 1
   17    49	 1
   17    50	 1
   18    45	 1
   18    47	 1
   18    48	 1
   18    77	 1
   18    78	 1
   18    79	 1
   19    46	 1
   20    22	 1
   20    77	 1
   20    78	 1
   20    79	 1
   21    22	 1
   22    46	 1
   23    43	 1
   23    44	 1
   23    26	 1
   23    54	 1
   23    55	 1
   23    57	 1
   23    58	 1
   23    37	 1
   23    64	 1
   23    35	 1
   23    61	 1
   24    27	 1
   24    59	 1
   24    60	 1
   24    38	 1
   24    34	 1
   24    29	 1
   24    56	 1
   25    28	 1
   25    33	 1
   25    57	 1
   25    58	 1
   25    32	 1
   25    31	 1
   25    30	 1
   26    52	 1
   26    53	 1
   26    59	 1
   26    60	 1
   26    71	 1
   26    72	 1
   26    73	 1
   27    33	 1
   27    54	 1
   27    55	 1
   27    32	 1
   27    31	 1
   27    30	 1
   28    52	 1
   28    53	 1
   28    38	 1
   28    34	 1
   28    29	 1
   28    56	 1
   29    54	 1
   29    55	 1
   29    57	 1
   29    58	 1
   30    56	 1
   30    71	 1
   30    72	 1
   30    73	 1
   31    56	 1
   31    71	 1
   31    72	 1
   31    73	 1
   32    56	 1
   33    59	 1
   33    60	 1
   33    52	 1
   33    53	 1
   33    36	 1
   33    39	 1
   33    63	 1
   34    37	 1
   34    64	 1
   34    62	 1
   34    41	 1
   34    42	 1
   34    40	 1
   35    38	 1
   35    63	 1
   35    65	 1
   35    66	 1
   35    67	 1
   35    74	 1
   35    75	 1
   35    76	 1
   35    68	 1
   35    69	 1
   35    70	 1
   36    61	 1
   36    41	 1
   36    42	 1
   36    40	 1
   36    64	 1
   37    39	 1
   38    61	 1
   38    62	 1
   39    61	 1
   39    62	 1
   40    65	 1
   40    66	 1
   40    67	 1
   40    74	 1
   40    75	 1
   40    76	 1
   41    74	 1
   41    75	 1
   41    76	 1
   41    68	 1
   41    69	 1
   41    70	 1
   42    65	 1
   42    66	 1
   42    67	 1
   42    68	 1
   42    69	 1
   42    70	 1
   43    45	 1
   44    45	 1
   45    46	 1
   46    47	 1
   46    48	 1
   52    54	 1
   52    55	 1
   53    54	 1
   53    55	 1
   54    56	 1
   55    56	 1
   56    57	 1
   56    58	 1
   57    59	 1
   57    60	 1
   58    59	 1
   58    60	 1
   62    63	 1
   63    64	 1

[ angles ]
;	ai	  aj	ak funct			c0			  c1			c2			  c3
    2     1     4	5 ;       HGP2      NG3P2      CG324
    2     1    23	5 ;       HGP2      NG3P2      CG301
    2     1     3	5 ;       HGP2      NG3P2       HGP2
    4     1    23	5 ;      CG324      NG3P2      CG301
    4     1     3	5 ;      CG324      NG3P2       HGP2
   23     1     3	5 ;      CG301      NG3P2       HGP2
    5     4     1	5 ;      CG311      CG324      NG3P2
    5     4    43	5 ;      CG311      CG324       HGA2
    5     4    44	5 ;      CG311      CG324       HGA2
    1     4    43	5 ;      NG3P2      CG324       HGA2
    1     4    44	5 ;      NG3P2      CG324       HGA2
   43     4    44	5 ;       HGA2      CG324       HGA2
    8     5     6	5 ;      CG311      CG311      OG311
    8     5     4	5 ;      CG311      CG311      CG324
    8     5    45	5 ;      CG311      CG311       HGA1
    6     5     4	5 ;      OG311      CG311      CG324
    6     5    45	5 ;      OG311      CG311       HGA1
    4     5    45	5 ;      CG324      CG311       HGA1
    7     6     5	5 ;       HGP1      OG311      CG311
   18     8     9	5 ;      NG2S1      CG311      CG321
   18     8     5	5 ;      NG2S1      CG311      CG311
   18     8    46	5 ;      NG2S1      CG311       HGA1
    9     8     5	5 ;      CG321      CG311      CG311
    9     8    46	5 ;      CG321      CG311       HGA1
    5     8    46	5 ;      CG311      CG311       HGA1
    8     9    10	5 ;      CG311      CG321     CG2R61
    8     9    47	5 ;      CG311      CG321       HGA2
    8     9    48	5 ;      CG311      CG321       HGA2
   10     9    47	5 ;     CG2R61      CG321       HGA2
   10     9    48	5 ;     CG2R61      CG321       HGA2
   47     9    48	5 ;       HGA2      CG321       HGA2
    9    10    17	5 ;      CG321     CG2R61     CG2R61
    9    10    11	5 ;      CG321     CG2R61     CG2R61
   17    10    11	5 ;     CG2R61     CG2R61     CG2R61
   10    11    12	5 ;     CG2R61     CG2R61     CG2R66
   10    11    49	5 ;     CG2R61     CG2R61      HGR62
   12    11    49	5 ;     CG2R66     CG2R61      HGR62
   11    12    14	5 ;     CG2R61     CG2R66     CG2R61
   11    12    13	5 ;     CG2R61     CG2R66       FGR1
   14    12    13	5 ;     CG2R61     CG2R66       FGR1
   15    14    12	5 ;     CG2R66     CG2R61     CG2R66
   15    14    50	5 ;     CG2R66     CG2R61      HGR62
   12    14    50	5 ;     CG2R66     CG2R61      HGR62
   17    15    16	5 ;     CG2R61     CG2R66       FGR1
   17    15    14	5 ;     CG2R61     CG2R66     CG2R61
   16    15    14	5 ;       FGR1     CG2R66     CG2R61
   10    17    15	5 ;     CG2R61     CG2R61     CG2R66
   10    17    51	5 ;     CG2R61     CG2R61      HGR62
   15    17    51	5 ;     CG2R66     CG2R61      HGR62
   19    18    22	5 ;      CG2O1      NG2S1       HGP1
   19    18     8	5 ;      CG2O1      NG2S1      CG311
   22    18     8	5 ;       HGP1      NG2S1      CG311
   21    19    20	5 ;      CG331      CG2O1      OG2D1
   21    19    18	5 ;      CG331      CG2O1      NG2S1
   20    19    18	5 ;      OG2D1      CG2O1      NG2S1
   19    21    77	5 ;      CG2O1      CG331       HGA3
   19    21    78	5 ;      CG2O1      CG331       HGA3
   19    21    79	5 ;      CG2O1      CG331       HGA3
   77    21    78	5 ;       HGA3      CG331       HGA3
   77    21    79	5 ;       HGA3      CG331       HGA3
   78    21    79	5 ;       HGA3      CG331       HGA3
   28    23     1	5 ;      CG321      CG301      NG3P2
   28    23    24	5 ;      CG321      CG301      CG321
   28    23    33	5 ;      CG321      CG301     CG2R61
    1    23    24	5 ;      NG3P2      CG301      CG321
    1    23    33	5 ;      NG3P2      CG301     CG2R61
   24    23    33	5 ;      CG321      CG301     CG2R61
   23    24    25	5 ;      CG301      CG321      CG321
   23    24    52	5 ;      CG301      CG321       HGA2
   23    24    53	5 ;      CG301      CG321       HGA2
   25    24    52	5 ;      CG321      CG321       HGA2
   25    24    53	5 ;      CG321      CG321       HGA2
   52    24    53	5 ;       HGA2      CG321       HGA2
   26    25    24	5 ;      CG311      CG321      CG321
   26    25    54	5 ;      CG311      CG321       HGA2
   26    25    55	5 ;      CG311      CG321       HGA2
   24    25    54	5 ;      CG321      CG321       HGA2
   24    25    55	5 ;      CG321      CG321       HGA2
   54    25    55	5 ;       HGA2      CG321       HGA2
   27    26    29	5 ;      CG321      CG311      SG3O2
   27    26    25	5 ;      CG321      CG311      CG321
   27    26    56	5 ;      CG321      CG311       HGA1
   29    26    25	5 ;      SG3O2      CG311      CG321
   29    26    56	5 ;      SG3O2      CG311       HGA1
   25    26    56	5 ;      CG321      CG311       HGA1
   28    27    26	5 ;      CG321      CG321      CG311
   28    27    57	5 ;      CG321      CG321       HGA2
   28    27    58	5 ;      CG321      CG321       HGA2
   26    27    57	5 ;      CG311      CG321       HGA2
   26    27    58	5 ;      CG311      CG321       HGA2
   57    27    58	5 ;       HGA2      CG321       HGA2
   27    28    23	5 ;      CG321      CG321      CG301
   27    28    59	5 ;      CG321      CG321       HGA2
   27    28    60	5 ;      CG321      CG321       HGA2
   23    28    59	5 ;      CG301      CG321       HGA2
   23    28    60	5 ;      CG301      CG321       HGA2
   59    28    60	5 ;       HGA2      CG321       HGA2
   32    29    26	5 ;      CG331      SG3O2      CG311
   32    29    31	5 ;      CG331      SG3O2      OG2P1
   32    29    30	5 ;      CG331      SG3O2      OG2P1
   26    29    31	5 ;      CG311      SG3O2      OG2P1
   26    29    30	5 ;      CG311      SG3O2      OG2P1
   31    29    30	5 ;      OG2P1      SG3O2      OG2P1
   29    32    71	5 ;      SG3O2      CG331       HGA3
   29    32    72	5 ;      SG3O2      CG331       HGA3
   29    32    73	5 ;      SG3O2      CG331       HGA3
   71    32    72	5 ;       HGA3      CG331       HGA3
   71    32    73	5 ;       HGA3      CG331       HGA3
   72    32    73	5 ;       HGA3      CG331       HGA3
   23    33    38	5 ;      CG301     CG2R61     CG2R61
   23    33    34	5 ;      CG301     CG2R61     CG2R61
   38    33    34	5 ;     CG2R61     CG2R61     CG2R61
   33    34    35	5 ;     CG2R61     CG2R61     CG2R61
   33    34    61	5 ;     CG2R61     CG2R61      HGR61
   35    34    61	5 ;     CG2R61     CG2R61      HGR61
   34    35    36	5 ;     CG2R61     CG2R61     CG2R61
   34    35    39	5 ;     CG2R61     CG2R61      CG301
   36    35    39	5 ;     CG2R61     CG2R61      CG301
   37    36    35	5 ;     CG2R61     CG2R61     CG2R61
   37    36    62	5 ;     CG2R61     CG2R61      HGR61
   35    36    62	5 ;     CG2R61     CG2R61      HGR61
   38    37    36	5 ;     CG2R61     CG2R61     CG2R61
   38    37    63	5 ;     CG2R61     CG2R61      HGR61
   36    37    63	5 ;     CG2R61     CG2R61      HGR61
   33    38    37	5 ;     CG2R61     CG2R61     CG2R61
   33    38    64	5 ;     CG2R61     CG2R61      HGR61
   37    38    64	5 ;     CG2R61     CG2R61      HGR61
   35    39    41	5 ;     CG2R61      CG301      CG331
   35    39    42	5 ;     CG2R61      CG301      CG331
   35    39    40	5 ;     CG2R61      CG301      CG331
   41    39    42	5 ;      CG331      CG301      CG331
   41    39    40	5 ;      CG331      CG301      CG331
   42    39    40	5 ;      CG331      CG301      CG331
   39    40    68	5 ;      CG301      CG331       HGA3
   39    40    69	5 ;      CG301      CG331       HGA3
   39    40    70	5 ;      CG301      CG331       HGA3
   68    40    69	5 ;       HGA3      CG331       HGA3
   68    40    70	5 ;       HGA3      CG331       HGA3
   69    40    70	5 ;       HGA3      CG331       HGA3
   39    41    65	5 ;      CG301      CG331       HGA3
   39    41    66	5 ;      CG301      CG331       HGA3
   39    41    67	5 ;      CG301      CG331       HGA3
   65    41    66	5 ;       HGA3      CG331       HGA3
   65    41    67	5 ;       HGA3      CG331       HGA3
   66    41    67	5 ;       HGA3      CG331       HGA3
   39    42    74	5 ;      CG301      CG331       HGA3
   39    42    75	5 ;      CG301      CG331       HGA3
   39    42    76	5 ;      CG301      CG331       HGA3
   74    42    75	5 ;       HGA3      CG331       HGA3
   74    42    76	5 ;       HGA3      CG331       HGA3
   75    42    76	5 ;       HGA3      CG331       HGA3

[ dihedrals ]
;	ai	  aj	ak	  al funct			  c0			c1			  c2			c3			  c4			c5
    2     1     4     5	 9 ;       HGP2      NG3P2      CG324      CG311
    2     1     4    43	 9 ;       HGP2      NG3P2      CG324       HGA2
    2     1     4    44	 9 ;       HGP2      NG3P2      CG324       HGA2
   23     1     4     5	 9 ;      CG301      NG3P2      CG324      CG311
   23     1     4    43	 9 ;      CG301      NG3P2      CG324       HGA2
   23     1     4    44	 9 ;      CG301      NG3P2      CG324       HGA2
    3     1     4     5	 9 ;       HGP2      NG3P2      CG324      CG311
    3     1     4    43	 9 ;       HGP2      NG3P2      CG324       HGA2
    3     1     4    44	 9 ;       HGP2      NG3P2      CG324       HGA2
    2     1    23    28	 9 ;       HGP2      NG3P2      CG301      CG321
    2     1    23    24	 9 ;       HGP2      NG3P2      CG301      CG321
    2     1    23    33	 9 ;       HGP2      NG3P2      CG301     CG2R61
    4     1    23    28	 9 ;      CG324      NG3P2      CG301      CG321
    4     1    23    24	 9 ;      CG324      NG3P2      CG301      CG321
    4     1    23    33	 9 ;      CG324      NG3P2      CG301     CG2R61
    3     1    23    28	 9 ;       HGP2      NG3P2      CG301      CG321
    3     1    23    24	 9 ;       HGP2      NG3P2      CG301      CG321
    3     1    23    33	 9 ;       HGP2      NG3P2      CG301     CG2R61
    1     4     5     8	 9 ;      NG3P2      CG324      CG311      CG311
    1     4     5     6	 9 ;      NG3P2      CG324      CG311      OG311
    1     4     5    45	 9 ;      NG3P2      CG324      CG311       HGA1
   43     4     5     8	 9 ;       HGA2      CG324      CG311      CG311
   43     4     5     6	 9 ;       HGA2      CG324      CG311      OG311
   43     4     5    45	 9 ;       HGA2      CG324      CG311       HGA1
   44     4     5     8	 9 ;       HGA2      CG324      CG311      CG311
   44     4     5     6	 9 ;       HGA2      CG324      CG311      OG311
   44     4     5    45	 9 ;       HGA2      CG324      CG311       HGA1
    6     5     8    18	 9 ;      OG311      CG311      CG311      NG2S1
    6     5     8     9	 9 ;      OG311      CG311      CG311      CG321
    6     5     8    46	 9 ;      OG311      CG311      CG311       HGA1
    4     5     8    18	 9 ;      CG324      CG311      CG311      NG2S1
    4     5     8     9	 9 ;      CG324      CG311      CG311      CG321
    4     5     8    46	 9 ;      CG324      CG311      CG311       HGA1
   45     5     8    18	 9 ;       HGA1      CG311      CG311      NG2S1
   45     5     8     9	 9 ;       HGA1      CG311      CG311      CG321
   45     5     8    46	 9 ;       HGA1      CG311      CG311       HGA1
    8     5     6     7	 9 ;      CG311      CG311      OG311       HGP1
    4     5     6     7	 9 ;      CG324      CG311      OG311       HGP1
   45     5     6     7	 9 ;       HGA1      CG311      OG311       HGP1
    9     8    18    19	 9 ;      CG321      CG311      NG2S1      CG2O1
    9     8    18    22	 9 ;      CG321      CG311      NG2S1       HGP1
    5     8    18    19	 9 ;      CG311      CG311      NG2S1      CG2O1
    5     8    18    22	 9 ;      CG311      CG311      NG2S1       HGP1
   46     8    18    19	 9 ;       HGA1      CG311      NG2S1      CG2O1
   46     8    18    22	 9 ;       HGA1      CG311      NG2S1       HGP1
   18     8     9    10	 9 ;      NG2S1      CG311      CG321     CG2R61
   18     8     9    47	 9 ;      NG2S1      CG311      CG321       HGA2
   18     8     9    48	 9 ;      NG2S1      CG311      CG321       HGA2
    5     8     9    10	 9 ;      CG311      CG311      CG321     CG2R61
    5     8     9    47	 9 ;      CG311      CG311      CG321       HGA2
    5     8     9    48	 9 ;      CG311      CG311      CG321       HGA2
   46     8     9    10	 9 ;       HGA1      CG311      CG321     CG2R61
   46     8     9    47	 9 ;       HGA1      CG311      CG321       HGA2
   46     8     9    48	 9 ;       HGA1      CG311      CG321       HGA2
    8     9    10    17	 9 ;      CG311      CG321     CG2R61     CG2R61
    8     9    10    11	 9 ;      CG311      CG321     CG2R61     CG2R61
   47     9    10    17	 9 ;       HGA2      CG321     CG2R61     CG2R61
   47     9    10    11	 9 ;       HGA2      CG321     CG2R61     CG2R61
   48     9    10    17	 9 ;       HGA2      CG321     CG2R61     CG2R61
   48     9    10    11	 9 ;       HGA2      CG321     CG2R61     CG2R61
    9    10    17    15	 9 ;      CG321     CG2R61     CG2R61     CG2R66
    9    10    17    51	 9 ;      CG321     CG2R61     CG2R61      HGR62
   11    10    17    15	 9 ;     CG2R61     CG2R61     CG2R61     CG2R66
   11    10    17    51	 9 ;     CG2R61     CG2R61     CG2R61      HGR62
    9    10    11    12	 9 ;      CG321     CG2R61     CG2R61     CG2R66
    9    10    11    49	 9 ;      CG321     CG2R61     CG2R61      HGR62
   17    10    11    12	 9 ;     CG2R61     CG2R61     CG2R61     CG2R66
   17    10    11    49	 9 ;     CG2R61     CG2R61     CG2R61      HGR62
   10    11    12    14	 9 ;     CG2R61     CG2R61     CG2R66     CG2R61
   10    11    12    13	 9 ;     CG2R61     CG2R61     CG2R66       FGR1
   49    11    12    14	 9 ;      HGR62     CG2R61     CG2R66     CG2R61
   49    11    12    13	 9 ;      HGR62     CG2R61     CG2R66       FGR1
   11    12    14    15	 9 ;     CG2R61     CG2R66     CG2R61     CG2R66
   11    12    14    50	 9 ;     CG2R61     CG2R66     CG2R61      HGR62
   13    12    14    15	 9 ;       FGR1     CG2R66     CG2R61     CG2R66
   13    12    14    50	 9 ;       FGR1     CG2R66     CG2R61      HGR62
   12    14    15    17	 9 ;     CG2R66     CG2R61     CG2R66     CG2R61
   12    14    15    16	 9 ;     CG2R66     CG2R61     CG2R66       FGR1
   50    14    15    17	 9 ;      HGR62     CG2R61     CG2R66     CG2R61
   50    14    15    16	 9 ;      HGR62     CG2R61     CG2R66       FGR1
   16    15    17    10	 9 ;       FGR1     CG2R66     CG2R61     CG2R61
   16    15    17    51	 9 ;       FGR1     CG2R66     CG2R61      HGR62
   14    15    17    10	 9 ;     CG2R61     CG2R66     CG2R61     CG2R61
   14    15    17    51	 9 ;     CG2R61     CG2R66     CG2R61      HGR62
   22    18    19    21	 9 ;       HGP1      NG2S1      CG2O1      CG331
   22    18    19    20	 9 ;       HGP1      NG2S1      CG2O1      OG2D1
    8    18    19    21	 9 ;      CG311      NG2S1      CG2O1      CG331
    8    18    19    20	 9 ;      CG311      NG2S1      CG2O1      OG2D1
   20    19    21    77	 9 ;      OG2D1      CG2O1      CG331       HGA3
   20    19    21    78	 9 ;      OG2D1      CG2O1      CG331       HGA3
   20    19    21    79	 9 ;      OG2D1      CG2O1      CG331       HGA3
   18    19    21    77	 9 ;      NG2S1      CG2O1      CG331       HGA3
   18    19    21    78	 9 ;      NG2S1      CG2O1      CG331       HGA3
   18    19    21    79	 9 ;      NG2S1      CG2O1      CG331       HGA3
    1    23    28    27	 9 ;      NG3P2      CG301      CG321      CG321
    1    23    28    59	 9 ;      NG3P2      CG301      CG321       HGA2
    1    23    28    60	 9 ;      NG3P2      CG301      CG321       HGA2
   24    23    28    27	 9 ;      CG321      CG301      CG321      CG321
   24    23    28    59	 9 ;      CG321      CG301      CG321       HGA2
   24    23    28    60	 9 ;      CG321      CG301      CG321       HGA2
   33    23    28    27	 9 ;     CG2R61      CG301      CG321      CG321
   33    23    28    59	 9 ;     CG2R61      CG301      CG321       HGA2
   33    23    28    60	 9 ;     CG2R61      CG301      CG321       HGA2
   28    23    24    25	 9 ;      CG321      CG301      CG321      CG321
   28    23    24    52	 9 ;      CG321      CG301      CG321       HGA2
   28    23    24    53	 9 ;      CG321      CG301      CG321       HGA2
    1    23    24    25	 9 ;      NG3P2      CG301      CG321      CG321
    1    23    24    52	 9 ;      NG3P2      CG301      CG321       HGA2
    1    23    24    53	 9 ;      NG3P2      CG301      CG321       HGA2
   33    23    24    25	 9 ;     CG2R61      CG301      CG321      CG321
   33    23    24    52	 9 ;     CG2R61      CG301      CG321       HGA2
   33    23    24    53	 9 ;     CG2R61      CG301      CG321       HGA2
   28    23    33    38	 9 ;      CG321      CG301     CG2R61     CG2R61
   28    23    33    34	 9 ;      CG321      CG301     CG2R61     CG2R61
    1    23    33    38	 9 ;      NG3P2      CG301     CG2R61     CG2R61
    1    23    33    34	 9 ;      NG3P2      CG301     CG2R61     CG2R61
   24    23    33    38	 9 ;      CG321      CG301     CG2R61     CG2R61
   24    23    33    34	 9 ;      CG321      CG301     CG2R61     CG2R61
   23    24    25    26	 9 ;      CG301      CG321      CG321      CG311
   23    24    25    54	 9 ;      CG301      CG321      CG321       HGA2
   23    24    25    55	 9 ;      CG301      CG321      CG321       HGA2
   52    24    25    26	 9 ;       HGA2      CG321      CG321      CG311
   52    24    25    54	 9 ;       HGA2      CG321      CG321       HGA2
   52    24    25    55	 9 ;       HGA2      CG321      CG321       HGA2
   53    24    25    26	 9 ;       HGA2      CG321      CG321      CG311
   53    24    25    54	 9 ;       HGA2      CG321      CG321       HGA2
   53    24    25    55	 9 ;       HGA2      CG321      CG321       HGA2
   24    25    26    27	 9 ;      CG321      CG321      CG311      CG321
   24    25    26    29	 9 ;      CG321      CG321      CG311      SG3O2
   24    25    26    56	 9 ;      CG321      CG321      CG311       HGA1
   54    25    26    27	 9 ;       HGA2      CG321      CG311      CG321
   54    25    26    29	 9 ;       HGA2      CG321      CG311      SG3O2
   54    25    26    56	 9 ;       HGA2      CG321      CG311       HGA1
   55    25    26    27	 9 ;       HGA2      CG321      CG311      CG321
   55    25    26    29	 9 ;       HGA2      CG321      CG311      SG3O2
   55    25    26    56	 9 ;       HGA2      CG321      CG311       HGA1
   29    26    27    28	 9 ;      SG3O2      CG311      CG321      CG321
   29    26    27    57	 9 ;      SG3O2      CG311      CG321       HGA2
   29    26    27    58	 9 ;      SG3O2      CG311      CG321       HGA2
   25    26    27    28	 9 ;      CG321      CG311      CG321      CG321
   25    26    27    57	 9 ;      CG321      CG311      CG321       HGA2
   25    26    27    58	 9 ;      CG321      CG311      CG321       HGA2
   56    26    27    28	 9 ;       HGA1      CG311      CG321      CG321
   56    26    27    57	 9 ;       HGA1      CG311      CG321       HGA2
   56    26    27    58	 9 ;       HGA1      CG311      CG321       HGA2
   27    26    29    32	 9 ;      CG321      CG311      SG3O2      CG331
   27    26    29    31	 9 ;      CG321      CG311      SG3O2      OG2P1
   27    26    29    30	 9 ;      CG321      CG311      SG3O2      OG2P1
   25    26    29    32	 9 ;      CG321      CG311      SG3O2      CG331
   25    26    29    31	 9 ;      CG321      CG311      SG3O2      OG2P1
   25    26    29    30	 9 ;      CG321      CG311      SG3O2      OG2P1
   56    26    29    32	 9 ;       HGA1      CG311      SG3O2      CG331
   56    26    29    31	 9 ;       HGA1      CG311      SG3O2      OG2P1
   56    26    29    30	 9 ;       HGA1      CG311      SG3O2      OG2P1
   26    27    28    23	 9 ;      CG311      CG321      CG321      CG301
   26    27    28    59	 9 ;      CG311      CG321      CG321       HGA2
   26    27    28    60	 9 ;      CG311      CG321      CG321       HGA2
   57    27    28    23	 9 ;       HGA2      CG321      CG321      CG301
   57    27    28    59	 9 ;       HGA2      CG321      CG321       HGA2
   57    27    28    60	 9 ;       HGA2      CG321      CG321       HGA2
   58    27    28    23	 9 ;       HGA2      CG321      CG321      CG301
   58    27    28    59	 9 ;       HGA2      CG321      CG321       HGA2
   58    27    28    60	 9 ;       HGA2      CG321      CG321       HGA2
   26    29    32    71	 9 ;      CG311      SG3O2      CG331       HGA3
   26    29    32    72	 9 ;      CG311      SG3O2      CG331       HGA3
   26    29    32    73	 9 ;      CG311      SG3O2      CG331       HGA3
   31    29    32    71	 9 ;      OG2P1      SG3O2      CG331       HGA3
   31    29    32    72	 9 ;      OG2P1      SG3O2      CG331       HGA3
   31    29    32    73	 9 ;      OG2P1      SG3O2      CG331       HGA3
   30    29    32    71	 9 ;      OG2P1      SG3O2      CG331       HGA3
   30    29    32    72	 9 ;      OG2P1      SG3O2      CG331       HGA3
   30    29    32    73	 9 ;      OG2P1      SG3O2      CG331       HGA3
   23    33    38    37	 9 ;      CG301     CG2R61     CG2R61     CG2R61
   23    33    38    64	 9 ;      CG301     CG2R61     CG2R61      HGR61
   34    33    38    37	 9 ;     CG2R61     CG2R61     CG2R61     CG2R61
   34    33    38    64	 9 ;     CG2R61     CG2R61     CG2R61      HGR61
   23    33    34    35	 9 ;      CG301     CG2R61     CG2R61     CG2R61
   23    33    34    61	 9 ;      CG301     CG2R61     CG2R61      HGR61
   38    33    34    35	 9 ;     CG2R61     CG2R61     CG2R61     CG2R61
   38    33    34    61	 9 ;     CG2R61     CG2R61     CG2R61      HGR61
   33    34    35    36	 9 ;     CG2R61     CG2R61     CG2R61     CG2R61
   33    34    35    39	 9 ;     CG2R61     CG2R61     CG2R61      CG301
   61    34    35    36	 9 ;      HGR61     CG2R61     CG2R61     CG2R61
   61    34    35    39	 9 ;      HGR61     CG2R61     CG2R61      CG301
   34    35    36    37	 9 ;     CG2R61     CG2R61     CG2R61     CG2R61
   34    35    36    62	 9 ;     CG2R61     CG2R61     CG2R61      HGR61
   39    35    36    37	 9 ;      CG301     CG2R61     CG2R61     CG2R61
   39    35    36    62	 9 ;      CG301     CG2R61     CG2R61      HGR61
   34    35    39    41	 9 ;     CG2R61     CG2R61      CG301      CG331
   34    35    39    42	 9 ;     CG2R61     CG2R61      CG301      CG331
   34    35    39    40	 9 ;     CG2R61     CG2R61      CG301      CG331
   36    35    39    41	 9 ;     CG2R61     CG2R61      CG301      CG331
   36    35    39    42	 9 ;     CG2R61     CG2R61      CG301      CG331
   36    35    39    40	 9 ;     CG2R61     CG2R61      CG301      CG331
   35    36    37    38	 9 ;     CG2R61     CG2R61     CG2R61     CG2R61
   35    36    37    63	 9 ;     CG2R61     CG2R61     CG2R61      HGR61
   62    36    37    38	 9 ;      HGR61     CG2R61     CG2R61     CG2R61
   62    36    37    63	 9 ;      HGR61     CG2R61     CG2R61      HGR61
   36    37    38    33	 9 ;     CG2R61     CG2R61     CG2R61     CG2R61
   36    37    38    64	 9 ;     CG2R61     CG2R61     CG2R61      HGR61
   63    37    38    33	 9 ;      HGR61     CG2R61     CG2R61     CG2R61
   63    37    38    64	 9 ;      HGR61     CG2R61     CG2R61      HGR61
   35    39    41    65	 9 ;     CG2R61      CG301      CG331       HGA3
   35    39    41    66	 9 ;     CG2R61      CG301      CG331       HGA3
   35    39    41    67	 9 ;     CG2R61      CG301      CG331       HGA3
   42    39    41    65	 9 ;      CG331      CG301      CG331       HGA3
   42    39    41    66	 9 ;      CG331      CG301      CG331       HGA3
   42    39    41    67	 9 ;      CG331      CG301      CG331       HGA3
   40    39    41    65	 9 ;      CG331      CG301      CG331       HGA3
   40    39    41    66	 9 ;      CG331      CG301      CG331       HGA3
   40    39    41    67	 9 ;      CG331      CG301      CG331       HGA3
   35    39    42    74	 9 ;     CG2R61      CG301      CG331       HGA3
   35    39    42    75	 9 ;     CG2R61      CG301      CG331       HGA3
   35    39    42    76	 9 ;     CG2R61      CG301      CG331       HGA3
   41    39    42    74	 9 ;      CG331      CG301      CG331       HGA3
   41    39    42    75	 9 ;      CG331      CG301      CG331       HGA3
   41    39    42    76	 9 ;      CG331      CG301      CG331       HGA3
   40    39    42    74	 9 ;      CG331      CG301      CG331       HGA3
   40    39    42    75	 9 ;      CG331      CG301      CG331       HGA3
   40    39    42    76	 9 ;      CG331      CG301      CG331       HGA3
   35    39    40    68	 9 ;     CG2R61      CG301      CG331       HGA3
   35    39    40    69	 9 ;     CG2R61      CG301      CG331       HGA3
   35    39    40    70	 9 ;     CG2R61      CG301      CG331       HGA3
   41    39    40    68	 9 ;      CG331      CG301      CG331       HGA3
   41    39    40    69	 9 ;      CG331      CG301      CG331       HGA3
   41    39    40    70	 9 ;      CG331      CG301      CG331       HGA3
   42    39    40    68	 9 ;      CG331      CG301      CG331       HGA3
   42    39    40    69	 9 ;      CG331      CG301      CG331       HGA3
   42    39    40    70	 9 ;      CG331      CG301      CG331       HGA3

[ dihedrals ]
;	ai	  aj	ak	  al funct			  c0			c1			  c2			c3
   19    21    18    20	 2

