Great Red Oystrich Makes All Chemists Sane
   79
    1LIG     N1    1  -1.278   0.539  -1.515
    1LIG     H1    2  -1.275   0.532  -1.619
    1LIG     H2    3  -1.360   0.600  -1.498
    1LIG     C1    4  -1.153   0.615  -1.477
    1LIG     C2    5  -1.080   0.668  -1.602
    1LIG     O1    6  -0.946   0.694  -1.555
    1LIG     H3    7  -0.916   0.614  -1.508
    1LIG     C3    8  -1.084   0.574  -1.727
    1LIG     C4    9  -1.158   0.636  -1.850
    1LIG     C5   10  -1.308   0.610  -1.848
    1LIG     C6   11  -1.397   0.714  -1.815
    1LIG     C7   12  -1.532   0.685  -1.791
    1LIG     F1   13  -1.613   0.784  -1.752
    1LIG     C8   14  -1.581   0.557  -1.804
    1LIG     C9   15  -1.495   0.456  -1.844
    1LIG     F2   16  -1.540   0.331  -1.856
    1LIG    C10   17  -1.360   0.482  -1.868
    1LIG     N2   18  -0.949   0.532  -1.771
    1LIG    C11   19  -0.918   0.406  -1.815
    1LIG     O2   20  -0.994   0.311  -1.804
    1LIG    C12   21  -0.782   0.398  -1.881
    1LIG     H4   22  -0.877   0.602  -1.784
    1LIG    C13   23  -1.307   0.404  -1.449
    1LIG    C14   24  -1.276   0.410  -1.297
    1LIG    C15   25  -1.293   0.272  -1.230
    1LIG    C16   26  -1.201   0.165  -1.289
    1LIG    C17   27  -1.196   0.169  -1.443
    1LIG    C18   28  -1.197   0.308  -1.506
    1LIG      S   29  -1.250  -0.003  -1.238
    1LIG     O3   30  -1.289   0.004  -1.098
    1LIG     O4   31  -1.342  -0.052  -1.338
    1LIG    C19   32  -1.102  -0.102  -1.247
    1LIG    C20   33  -1.453   0.362  -1.478
    1LIG    C21   34  -1.562   0.444  -1.444
    1LIG    C22   35  -1.695   0.409  -1.477
    1LIG    C23   36  -1.717   0.287  -1.543
    1LIG    C24   37  -1.611   0.202  -1.572
    1LIG    C25   38  -1.482   0.238  -1.538
    1LIG    C26   39  -1.817   0.499  -1.446
    1LIG    C27   40  -1.837   0.527  -1.296
    1LIG    C28   41  -1.800   0.635  -1.518
    1LIG    C29   42  -1.946   0.431  -1.497
    1LIG    HC2   43  -1.181   0.699  -1.413
    1LIG    HC3   44  -1.087   0.548  -1.421
    1LIG     HC   45  -1.125   0.763  -1.630
    1LIG    HC1   46  -1.138   0.484  -1.698
    1LIG    HC4   47  -1.141   0.743  -1.850
    1LIG    HC5   48  -1.117   0.593  -1.941
    1LIG    HC6   49  -1.362   0.815  -1.807
    1LIG    HC7   50  -1.685   0.535  -1.782
    1LIG    HC8   51  -1.295   0.403  -1.902
    1LIG    HC9   52  -1.344   0.481  -1.250
    1LIG   HC10   53  -1.173   0.444  -1.283
    1LIG   HC11   54  -1.397   0.240  -1.242
    1LIG   HC12   55  -1.272   0.282  -1.123
    1LIG   HC13   56  -1.101   0.184  -1.252
    1LIG   HC14   57  -1.282   0.114  -1.481
    1LIG   HC15   58  -1.105   0.117  -1.475
    1LIG   HC16   59  -1.214   0.297  -1.613
    1LIG   HC17   60  -1.100   0.354  -1.491
    1LIG   HC18   61  -1.544   0.538  -1.393
    1LIG   HC19   62  -1.817   0.258  -1.571
    1LIG   HC20   63  -1.630   0.107  -1.621
    1LIG   HC21   64  -1.401   0.170  -1.560
    1LIG   HC22   65  -1.786   0.619  -1.624
    1LIG   HC23   66  -1.714   0.687  -1.477
    1LIG   HC24   67  -1.890   0.696  -1.502
    1LIG   HC25   68  -1.747   0.575  -1.256
    1LIG   HC26   69  -1.854   0.433  -1.243
    1LIG   HC27   70  -1.923   0.593  -1.282
    1LIG   HC28   71  -1.125  -0.204  -1.217
    1LIG   HC29   72  -1.065  -0.101  -1.349
    1LIG   HC30   73  -1.027  -0.061  -1.180
    1LIG   HC31   74  -2.032   0.495  -1.475
    1LIG   HC32   75  -1.959   0.335  -1.448
    1LIG   HC33   76  -1.940   0.416  -1.605
    1LIG   HC34   77  -0.764   0.295  -1.914
    1LIG   HC35   78  -0.780   0.464  -1.967
    1LIG   HC36   79  -0.705   0.428  -1.810
   0.00000   0.00000   0.00000
