GROup of MAchos and Cynical Suckers
   42
    1LIG     C1    1   2.122   3.894  -1.617
    1LIG     O5    2   2.214   3.744  -1.828
    1LIG     C3    3   2.441   3.792  -1.781
    1LIG     C4    4   2.532   3.857  -1.696
    1LIG     C5    5   2.487   3.710  -1.884
    1LIG     C6    6   2.670   3.837  -1.715
    1LIG     C7    7   2.624   3.692  -1.903
    1LIG     C8    8   2.714   3.755  -1.819
    1LIG     C9    9   2.249   3.907  -1.658
    1LIG    C10   10   2.351   4.009  -1.616
    1LIG    C11   11   2.294   3.808  -1.761
    1LIG    C12   12   2.484   3.943  -1.582
    1LIG     N1   13   2.072   3.927  -1.387
    1LIG     O4   14   2.000   4.083  -1.540
    1LIG     C2   15   2.059   3.980  -1.514
    1LIG     H3   16   2.090   3.827  -1.385
    1LIG    C13   17   1.997   3.986  -1.274
    1LIG    C15   18   2.088   4.046  -1.164
    1LIG    C16   19   2.234   4.063  -1.209
    1LIG    C17   20   2.036   4.182  -1.117
    1LIG     O2   21   1.799   3.885  -1.171
    1LIG    C14   22   1.913   3.872  -1.213
    1LIG     O3   23   1.981   3.756  -1.201
    1LIG     H2   24   2.050   3.760  -1.132
    1LIG     O1   25   2.847   3.734  -1.841
    1LIG     H1   26   2.866   3.639  -1.830
    1LIG     H4   27   2.064   3.820  -1.659
    1LIG     H5   28   2.419   3.663  -1.946
    1LIG     H6   29   2.738   3.882  -1.652
    1LIG     H7   30   2.658   3.632  -1.980
    1LIG     H8   31   2.315   4.061  -1.530
    1LIG     H9   32   2.366   4.077  -1.697
    1LIG    H10   33   2.557   4.018  -1.562
    1LIG    H11   34   2.470   3.880  -1.496
    1LIG     HA   35   1.937   4.066  -1.311
    1LIG     HB   36   2.086   3.975  -1.084
    1LIG   HG11   37   2.239   4.134  -1.289
    1LIG   HG12   38   2.273   3.969  -1.242
    1LIG   HG13   39   2.292   4.099  -1.127
    1LIG   HG21   40   2.039   4.252  -1.199
    1LIG   HG22   41   2.097   4.219  -1.037
    1LIG   HG23   42   1.935   4.172  -1.083
   0.00000   0.00000   0.00000
