Gravel Rubs Often Many Awfully Cauterized Sores
   52
    1LIG     C1    1  -1.850   0.209  -1.259
    1LIG     C2    2  -1.812   0.350  -1.221
    1LIG     C3    3  -1.827   0.314  -1.366
    1LIG     C4    4  -1.991   0.152  -1.231
    1LIG     N1    5  -2.065   0.249  -1.152
    1LIG     C5    6  -2.171   0.307  -1.193
    1LIG     HN    7  -2.031   0.271  -1.058
    1LIG     N2    8  -2.232   0.282  -1.313
    1LIG     C6    9  -2.182   0.189  -1.401
    1LIG     C7   10  -2.353   0.353  -1.352
    1LIG      O   11  -2.235   0.163  -1.510
    1LIG     C8   12  -2.059   0.112  -1.362
    1LIG     C9   13  -1.979   0.026  -1.143
    1LIG     N3   14  -2.224   0.400  -1.108
    1LIG     H1   15  -2.164   0.439  -1.038
    1LIG     H2   16  -2.277   0.470  -1.159
    1LIG    C10   17  -1.710   0.307  -1.461
    1LIG    C11   18  -1.585   0.359  -1.422
    1LIG    C12   19  -1.465   0.332  -1.492
    1LIG    C13   20  -1.476   0.255  -1.609
    1LIG    C14   21  -1.600   0.208  -1.654
    1LIG    C15   22  -1.715   0.233  -1.580
    1LIG    C16   23  -1.333   0.377  -1.441
    1LIG    C17   24  -1.285   0.507  -1.465
    1LIG    C18   25  -1.162   0.551  -1.413
    1LIG    C19   26  -1.085   0.466  -1.335
    1LIG    C20   27  -1.129   0.337  -1.310
    1LIG    C21   28  -1.251   0.293  -1.363
    1LIG     HC   29  -1.770   0.136  -1.249
    1LIG    HC2   30  -1.885   0.415  -1.173
    1LIG    HC3   31  -1.709   0.362  -1.187
    1LIG    HC1   32  -1.918   0.352  -1.412
    1LIG    HN2   33  -2.121   0.174  -1.113
    1LIG    HC4   34  -2.232   0.230  -1.146
    1LIG    HC5   35  -2.396   0.306  -1.440
    1LIG    HC6   36  -2.425   0.349  -1.270
    1LIG    HC7   37  -2.329   0.457  -1.374
    1LIG    HC8   38  -1.986   0.123  -1.442
    1LIG    HC9   39  -2.086   0.007  -1.355
    1LIG   HC10   40  -1.930   0.052  -1.049
    1LIG   HC11   41  -1.919  -0.049  -1.195
    1LIG   HC12   42  -2.078  -0.014  -1.122
    1LIG    HN1   43  -2.294   0.350  -1.056
    1LIG   HC13   44  -1.580   0.423  -1.335
    1LIG   HC14   45  -1.387   0.231  -1.665
    1LIG   HC15   46  -1.606   0.152  -1.746
    1LIG   HC16   47  -1.810   0.195  -1.614
    1LIG   HC17   48  -1.344   0.575  -1.524
    1LIG   HC18   49  -1.128   0.651  -1.434
    1LIG   HC19   50  -0.991   0.500  -1.294
    1LIG   HC20   51  -1.070   0.270  -1.250
    1LIG   HC21   52  -1.283   0.191  -1.344
   0.00000   0.00000   0.00000
