; Created by cgenff_charmm2gmx.py

[ moleculetype ]
; Name			   nrexcl
LIG				 3

[ atoms ]
;	 nr		  type	resnr residue  atom   cgnr	   charge		mass  typeB    chargeB		massB
; residue	 1 LIG rtp LIG q	qsum
     1      BRGR1      1    LIG     BR      1     -0.181     79.904   ;
     2     CG2R61      1    LIG     C1      2     -0.016     12.011   ;
     3     CG2R61      1    LIG     C2      3     -0.062     12.011   ;
     4     CG2R61      1    LIG     C3      4     -0.113     12.011   ;
     5     CG2R61      1    LIG     C4      5      0.081     12.011   ;
     6     OG3R60      1    LIG     O1      6     -0.368     15.999   ;
     7      CG301      1    LIG     C5      7      0.257     12.011   ;
     8      CG321      1    LIG     C6      8     -0.252     12.011   ;
     9     CG3C50      1    LIG     C7      9      0.987     12.011   ;
    10     NG3C51      1    LIG     N1     10     -0.729     14.007   ;
    11       HGP1      1    LIG     HN     11      0.231      1.008   ;
    12     CG3C51      1    LIG     C8     12      0.353     12.011   ;
    13     NG2R53      1    LIG     N2     13     -0.365     14.007   ;
    14      CG331      1    LIG     C9     14     -0.126     12.011   ;
    15     CG2R53      1    LIG    C10     15      0.099     12.011   ;
    16      OG2D1      1    LIG     O2     16     -0.402     15.999   ;
    17      CG331      1    LIG    C11     17     -0.287     12.011   ;
    18      CG331      1    LIG    C12     18     -0.287     12.011   ;
    19     CG2R61      1    LIG    C13     19     -0.109     12.011   ;
    20     CG2R61      1    LIG    C14     20     -0.069     12.011   ;
    21      NG321      1    LIG     N3     21     -0.877     14.007   ;
    22     HGPAM2      1    LIG     H1     22      0.349      1.008   ;
    23     HGPAM2      1    LIG     H2     23      0.349      1.008   ;
    24      HGR62      1    LIG     H3     24      0.123      1.008   ;
    25       HGA2      1    LIG     H4     25      0.090      1.008   ;
    26       HGA2      1    LIG     H5     26      0.090      1.008   ;
    27       HGA1      1    LIG     H6     27      0.110      1.008   ;
    28       HGA3      1    LIG     H7     28      0.090      1.008   ;
    29       HGA3      1    LIG     H8     29      0.090      1.008   ;
    30       HGA3      1    LIG     H9     30      0.090      1.008   ;
    31       HGA3      1    LIG    H10     31      0.090      1.008   ;
    32       HGA3      1    LIG    H11     32      0.090      1.008   ;
    33       HGA3      1    LIG    H12     33      0.090      1.008   ;
    34       HGA3      1    LIG    H13     34      0.090      1.008   ;
    35       HGA3      1    LIG    H14     35      0.090      1.008   ;
    36       HGA3      1    LIG    H15     36      0.090      1.008   ;
    37      HGR61      1    LIG    H16     37      0.116      1.008   ;
    38      HGR62      1    LIG    H17     38      0.148      1.008   ;
    39        LPH      1    LIG    LP1     39      0.050      0.000   ;

[ bonds ]
;	ai	  aj funct			  c0			c1			  c2			c3
    1     2	 1 ;       BRGR1     CG2R61
    2     3	 1 ;      CG2R61     CG2R61
    2    20	 1 ;      CG2R61     CG2R61
    3     4	 1 ;      CG2R61     CG2R61
    3    24	 1 ;      CG2R61      HGR62
    4     9	 1 ;      CG2R61     CG3C50
    4     5	 1 ;      CG2R61     CG2R61
    5     6	 1 ;      CG2R61     OG3R60
    5    19	 1 ;      CG2R61     CG2R61
    6     7	 1 ;      OG3R60      CG301
    7     8	 1 ;       CG301      CG321
    7    17	 1 ;       CG301      CG331
    7    18	 1 ;       CG301      CG331
    8     9	 1 ;       CG321     CG3C50
    8    25	 1 ;       CG321       HGA2
    8    26	 1 ;       CG321       HGA2
    9    15	 1 ;      CG3C50     CG2R53
    9    10	 1 ;      CG3C50     NG3C51
   10    12	 1 ;      NG3C51     CG3C51
   10    11	 1 ;      NG3C51       HGP1
   12    21	 1 ;      CG3C51      NG321
   12    13	 1 ;      CG3C51     NG2R53
   12    27	 1 ;      CG3C51       HGA1
   13    14	 1 ;      NG2R53      CG331
   13    15	 1 ;      NG2R53     CG2R53
   14    28	 1 ;       CG331       HGA3
   14    29	 1 ;       CG331       HGA3
   14    30	 1 ;       CG331       HGA3
   15    16	 1 ;      CG2R53      OG2D1
   17    31	 1 ;       CG331       HGA3
   17    32	 1 ;       CG331       HGA3
   17    33	 1 ;       CG331       HGA3
   18    34	 1 ;       CG331       HGA3
   18    35	 1 ;       CG331       HGA3
   18    36	 1 ;       CG331       HGA3
   19    20	 1 ;      CG2R61     CG2R61
   19    37	 1 ;      CG2R61      HGR61
   20    38	 1 ;      CG2R61      HGR62
   21    23	 1 ;       NG321     HGPAM2
   21    22	 1 ;       NG321     HGPAM2

[ pairs ]
;	ai	  aj funct			  c0			c1			  c2			c3
    1     4	 1
   39     4	 1
    1    24	 1
   39    24	 1
    1    19	 1
   39    19	 1
    1    38	 1
   39    38	 1
    2     9	 1
    2     5	 1
    2    37	 1
    3    19	 1
    3    38	 1
    3    15	 1
    3    10	 1
    3     8	 1
    3     6	 1
    4    20	 1
    4     7	 1
    4    37	 1
    4    25	 1
    4    26	 1
    4    13	 1
    4    16	 1
    4    12	 1
    4    11	 1
    5    24	 1
    5    15	 1
    5    10	 1
    5     8	 1
    5    17	 1
    5    18	 1
    5    38	 1
    6     9	 1
    6    20	 1
    6    37	 1
    6    25	 1
    6    26	 1
    6    31	 1
    6    32	 1
    6    33	 1
    6    34	 1
    6    35	 1
    6    36	 1
    7    19	 1
    7    15	 1
    7    10	 1
    8    31	 1
    8    32	 1
    8    33	 1
    8    34	 1
    8    35	 1
    8    36	 1
    8    13	 1
    8    16	 1
    8    12	 1
    8    11	 1
    9    24	 1
    9    19	 1
    9    17	 1
    9    18	 1
    9    21	 1
    9    27	 1
    9    14	 1
   10    25	 1
   10    26	 1
   10    16	 1
   10    23	 1
   10    22	 1
   10    14	 1
   11    15	 1
   11    21	 1
   11    13	 1
   11    27	 1
   12    28	 1
   12    29	 1
   12    30	 1
   12    16	 1
   13    23	 1
   13    22	 1
   14    21	 1
   14    27	 1
   14    16	 1
   15    25	 1
   15    26	 1
   15    21	 1
   15    27	 1
   15    28	 1
   15    29	 1
   15    30	 1
   17    25	 1
   17    26	 1
   17    34	 1
   17    35	 1
   17    36	 1
   18    25	 1
   18    26	 1
   18    31	 1
   18    32	 1
   18    33	 1
   20    24	 1
   22    27	 1
   23    27	 1
   37    38	 1

[ angles ]
;	ai	  aj	ak funct			c0			  c1			c2			  c3
    3     2     1	5 ;     CG2R61     CG2R61      BRGR1
    3     2    20	5 ;     CG2R61     CG2R61     CG2R61
    1     2    20	5 ;      BRGR1     CG2R61     CG2R61
    4     3     2	5 ;     CG2R61     CG2R61     CG2R61
    4     3    24	5 ;     CG2R61     CG2R61      HGR62
    2     3    24	5 ;     CG2R61     CG2R61      HGR62
    9     4     3	5 ;     CG3C50     CG2R61     CG2R61
    9     4     5	5 ;     CG3C50     CG2R61     CG2R61
    3     4     5	5 ;     CG2R61     CG2R61     CG2R61
    4     5     6	5 ;     CG2R61     CG2R61     OG3R60
    4     5    19	5 ;     CG2R61     CG2R61     CG2R61
    6     5    19	5 ;     OG3R60     CG2R61     CG2R61
    7     6     5	5 ;      CG301     OG3R60     CG2R61
    8     7    17	5 ;      CG321      CG301      CG331
    8     7    18	5 ;      CG321      CG301      CG331
    8     7     6	5 ;      CG321      CG301     OG3R60
   17     7    18	5 ;      CG331      CG301      CG331
   17     7     6	5 ;      CG331      CG301     OG3R60
   18     7     6	5 ;      CG331      CG301     OG3R60
    9     8     7	5 ;     CG3C50      CG321      CG301
    9     8    25	5 ;     CG3C50      CG321       HGA2
    9     8    26	5 ;     CG3C50      CG321       HGA2
    7     8    25	5 ;      CG301      CG321       HGA2
    7     8    26	5 ;      CG301      CG321       HGA2
   25     8    26	5 ;       HGA2      CG321       HGA2
   15     9    10	5 ;     CG2R53     CG3C50     NG3C51
   15     9     8	5 ;     CG2R53     CG3C50      CG321
   15     9     4	5 ;     CG2R53     CG3C50     CG2R61
   10     9     8	5 ;     NG3C51     CG3C50      CG321
   10     9     4	5 ;     NG3C51     CG3C50     CG2R61
    8     9     4	5 ;      CG321     CG3C50     CG2R61
   12    10    11	5 ;     CG3C51     NG3C51       HGP1
   12    10     9	5 ;     CG3C51     NG3C51     CG3C50
   11    10     9	5 ;       HGP1     NG3C51     CG3C50
   21    12    13	5 ;      NG321     CG3C51     NG2R53
   21    12    10	5 ;      NG321     CG3C51     NG3C51
   21    12    27	5 ;      NG321     CG3C51       HGA1
   13    12    10	5 ;     NG2R53     CG3C51     NG3C51
   13    12    27	5 ;     NG2R53     CG3C51       HGA1
   10    12    27	5 ;     NG3C51     CG3C51       HGA1
   12    13    14	5 ;     CG3C51     NG2R53      CG331
   12    13    15	5 ;     CG3C51     NG2R53     CG2R53
   14    13    15	5 ;      CG331     NG2R53     CG2R53
   13    14    28	5 ;     NG2R53      CG331       HGA3
   13    14    29	5 ;     NG2R53      CG331       HGA3
   13    14    30	5 ;     NG2R53      CG331       HGA3
   28    14    29	5 ;       HGA3      CG331       HGA3
   28    14    30	5 ;       HGA3      CG331       HGA3
   29    14    30	5 ;       HGA3      CG331       HGA3
   13    15    16	5 ;     NG2R53     CG2R53      OG2D1
   13    15     9	5 ;     NG2R53     CG2R53     CG3C50
   16    15     9	5 ;      OG2D1     CG2R53     CG3C50
    7    17    31	5 ;      CG301      CG331       HGA3
    7    17    32	5 ;      CG301      CG331       HGA3
    7    17    33	5 ;      CG301      CG331       HGA3
   31    17    32	5 ;       HGA3      CG331       HGA3
   31    17    33	5 ;       HGA3      CG331       HGA3
   32    17    33	5 ;       HGA3      CG331       HGA3
    7    18    34	5 ;      CG301      CG331       HGA3
    7    18    35	5 ;      CG301      CG331       HGA3
    7    18    36	5 ;      CG301      CG331       HGA3
   34    18    35	5 ;       HGA3      CG331       HGA3
   34    18    36	5 ;       HGA3      CG331       HGA3
   35    18    36	5 ;       HGA3      CG331       HGA3
    5    19    20	5 ;     CG2R61     CG2R61     CG2R61
    5    19    37	5 ;     CG2R61     CG2R61      HGR61
   20    19    37	5 ;     CG2R61     CG2R61      HGR61
    2    20    19	5 ;     CG2R61     CG2R61     CG2R61
    2    20    38	5 ;     CG2R61     CG2R61      HGR62
   19    20    38	5 ;     CG2R61     CG2R61      HGR62
   23    21    22	5 ;     HGPAM2      NG321     HGPAM2
   23    21    12	5 ;     HGPAM2      NG321     CG3C51
   22    21    12	5 ;     HGPAM2      NG321     CG3C51

[ dihedrals ]
;	ai	  aj	ak	  al funct			  c0			c1			  c2			c3			  c4			c5
    1     2     3     4	 9 ;      BRGR1     CG2R61     CG2R61     CG2R61
    1     2     3    24	 9 ;      BRGR1     CG2R61     CG2R61      HGR62
   20     2     3     4	 9 ;     CG2R61     CG2R61     CG2R61     CG2R61
   20     2     3    24	 9 ;     CG2R61     CG2R61     CG2R61      HGR62
    3     2    20    19	 9 ;     CG2R61     CG2R61     CG2R61     CG2R61
    3     2    20    38	 9 ;     CG2R61     CG2R61     CG2R61      HGR62
    1     2    20    19	 9 ;      BRGR1     CG2R61     CG2R61     CG2R61
    1     2    20    38	 9 ;      BRGR1     CG2R61     CG2R61      HGR62
    2     3     4     9	 9 ;     CG2R61     CG2R61     CG2R61     CG3C50
    2     3     4     5	 9 ;     CG2R61     CG2R61     CG2R61     CG2R61
   24     3     4     9	 9 ;      HGR62     CG2R61     CG2R61     CG3C50
   24     3     4     5	 9 ;      HGR62     CG2R61     CG2R61     CG2R61
    3     4     9    15	 9 ;     CG2R61     CG2R61     CG3C50     CG2R53
    3     4     9    10	 9 ;     CG2R61     CG2R61     CG3C50     NG3C51
    3     4     9     8	 9 ;     CG2R61     CG2R61     CG3C50      CG321
    5     4     9    15	 9 ;     CG2R61     CG2R61     CG3C50     CG2R53
    5     4     9    10	 9 ;     CG2R61     CG2R61     CG3C50     NG3C51
    5     4     9     8	 9 ;     CG2R61     CG2R61     CG3C50      CG321
    9     4     5     6	 9 ;     CG3C50     CG2R61     CG2R61     OG3R60
    9     4     5    19	 9 ;     CG3C50     CG2R61     CG2R61     CG2R61
    3     4     5     6	 9 ;     CG2R61     CG2R61     CG2R61     OG3R60
    3     4     5    19	 9 ;     CG2R61     CG2R61     CG2R61     CG2R61
    4     5     6     7	 9 ;     CG2R61     CG2R61     OG3R60      CG301
   19     5     6     7	 9 ;     CG2R61     CG2R61     OG3R60      CG301
    4     5    19    20	 9 ;     CG2R61     CG2R61     CG2R61     CG2R61
    4     5    19    37	 9 ;     CG2R61     CG2R61     CG2R61      HGR61
    6     5    19    20	 9 ;     OG3R60     CG2R61     CG2R61     CG2R61
    6     5    19    37	 9 ;     OG3R60     CG2R61     CG2R61      HGR61
    5     6     7     8	 9 ;     CG2R61     OG3R60      CG301      CG321
    5     6     7    17	 9 ;     CG2R61     OG3R60      CG301      CG331
    5     6     7    18	 9 ;     CG2R61     OG3R60      CG301      CG331
   17     7     8     9	 9 ;      CG331      CG301      CG321     CG3C50
   17     7     8    25	 9 ;      CG331      CG301      CG321       HGA2
   17     7     8    26	 9 ;      CG331      CG301      CG321       HGA2
   18     7     8     9	 9 ;      CG331      CG301      CG321     CG3C50
   18     7     8    25	 9 ;      CG331      CG301      CG321       HGA2
   18     7     8    26	 9 ;      CG331      CG301      CG321       HGA2
    6     7     8     9	 9 ;     OG3R60      CG301      CG321     CG3C50
    6     7     8    25	 9 ;     OG3R60      CG301      CG321       HGA2
    6     7     8    26	 9 ;     OG3R60      CG301      CG321       HGA2
    8     7    17    31	 9 ;      CG321      CG301      CG331       HGA3
    8     7    17    32	 9 ;      CG321      CG301      CG331       HGA3
    8     7    17    33	 9 ;      CG321      CG301      CG331       HGA3
   18     7    17    31	 9 ;      CG331      CG301      CG331       HGA3
   18     7    17    32	 9 ;      CG331      CG301      CG331       HGA3
   18     7    17    33	 9 ;      CG331      CG301      CG331       HGA3
    6     7    17    31	 9 ;     OG3R60      CG301      CG331       HGA3
    6     7    17    32	 9 ;     OG3R60      CG301      CG331       HGA3
    6     7    17    33	 9 ;     OG3R60      CG301      CG331       HGA3
    8     7    18    34	 9 ;      CG321      CG301      CG331       HGA3
    8     7    18    35	 9 ;      CG321      CG301      CG331       HGA3
    8     7    18    36	 9 ;      CG321      CG301      CG331       HGA3
   17     7    18    34	 9 ;      CG331      CG301      CG331       HGA3
   17     7    18    35	 9 ;      CG331      CG301      CG331       HGA3
   17     7    18    36	 9 ;      CG331      CG301      CG331       HGA3
    6     7    18    34	 9 ;     OG3R60      CG301      CG331       HGA3
    6     7    18    35	 9 ;     OG3R60      CG301      CG331       HGA3
    6     7    18    36	 9 ;     OG3R60      CG301      CG331       HGA3
    7     8     9    15	 9 ;      CG301      CG321     CG3C50     CG2R53
    7     8     9    10	 9 ;      CG301      CG321     CG3C50     NG3C51
    7     8     9     4	 9 ;      CG301      CG321     CG3C50     CG2R61
   25     8     9    15	 9 ;       HGA2      CG321     CG3C50     CG2R53
   25     8     9    10	 9 ;       HGA2      CG321     CG3C50     NG3C51
   25     8     9     4	 9 ;       HGA2      CG321     CG3C50     CG2R61
   26     8     9    15	 9 ;       HGA2      CG321     CG3C50     CG2R53
   26     8     9    10	 9 ;       HGA2      CG321     CG3C50     NG3C51
   26     8     9     4	 9 ;       HGA2      CG321     CG3C50     CG2R61
   10     9    15    13	 9 ;     NG3C51     CG3C50     CG2R53     NG2R53
   10     9    15    16	 9 ;     NG3C51     CG3C50     CG2R53      OG2D1
    8     9    15    13	 9 ;      CG321     CG3C50     CG2R53     NG2R53
    8     9    15    16	 9 ;      CG321     CG3C50     CG2R53      OG2D1
    4     9    15    13	 9 ;     CG2R61     CG3C50     CG2R53     NG2R53
    4     9    15    16	 9 ;     CG2R61     CG3C50     CG2R53      OG2D1
   15     9    10    12	 9 ;     CG2R53     CG3C50     NG3C51     CG3C51
   15     9    10    11	 9 ;     CG2R53     CG3C50     NG3C51       HGP1
    8     9    10    12	 9 ;      CG321     CG3C50     NG3C51     CG3C51
    8     9    10    11	 9 ;      CG321     CG3C50     NG3C51       HGP1
    4     9    10    12	 9 ;     CG2R61     CG3C50     NG3C51     CG3C51
    4     9    10    11	 9 ;     CG2R61     CG3C50     NG3C51       HGP1
   11    10    12    21	 9 ;       HGP1     NG3C51     CG3C51      NG321
   11    10    12    13	 9 ;       HGP1     NG3C51     CG3C51     NG2R53
   11    10    12    27	 9 ;       HGP1     NG3C51     CG3C51       HGA1
    9    10    12    21	 9 ;     CG3C50     NG3C51     CG3C51      NG321
    9    10    12    13	 9 ;     CG3C50     NG3C51     CG3C51     NG2R53
    9    10    12    27	 9 ;     CG3C50     NG3C51     CG3C51       HGA1
   13    12    21    23	 9 ;     NG2R53     CG3C51      NG321     HGPAM2
   13    12    21    22	 9 ;     NG2R53     CG3C51      NG321     HGPAM2
   10    12    21    23	 9 ;     NG3C51     CG3C51      NG321     HGPAM2
   10    12    21    22	 9 ;     NG3C51     CG3C51      NG321     HGPAM2
   27    12    21    23	 9 ;       HGA1     CG3C51      NG321     HGPAM2
   27    12    21    22	 9 ;       HGA1     CG3C51      NG321     HGPAM2
   21    12    13    14	 9 ;      NG321     CG3C51     NG2R53      CG331
   21    12    13    15	 9 ;      NG321     CG3C51     NG2R53     CG2R53
   10    12    13    14	 9 ;     NG3C51     CG3C51     NG2R53      CG331
   10    12    13    15	 9 ;     NG3C51     CG3C51     NG2R53     CG2R53
   27    12    13    14	 9 ;       HGA1     CG3C51     NG2R53      CG331
   27    12    13    15	 9 ;       HGA1     CG3C51     NG2R53     CG2R53
   12    13    14    28	 9 ;     CG3C51     NG2R53      CG331       HGA3
   12    13    14    29	 9 ;     CG3C51     NG2R53      CG331       HGA3
   12    13    14    30	 9 ;     CG3C51     NG2R53      CG331       HGA3
   15    13    14    28	 9 ;     CG2R53     NG2R53      CG331       HGA3
   15    13    14    29	 9 ;     CG2R53     NG2R53      CG331       HGA3
   15    13    14    30	 9 ;     CG2R53     NG2R53      CG331       HGA3
   12    13    15    16	 9 ;     CG3C51     NG2R53     CG2R53      OG2D1
   12    13    15     9	 9 ;     CG3C51     NG2R53     CG2R53     CG3C50
   14    13    15    16	 9 ;      CG331     NG2R53     CG2R53      OG2D1
   14    13    15     9	 9 ;      CG331     NG2R53     CG2R53     CG3C50
    5    19    20     2	 9 ;     CG2R61     CG2R61     CG2R61     CG2R61
    5    19    20    38	 9 ;     CG2R61     CG2R61     CG2R61      HGR62
   37    19    20     2	 9 ;      HGR61     CG2R61     CG2R61     CG2R61
   37    19    20    38	 9 ;      HGR61     CG2R61     CG2R61      HGR62

[ dihedrals ]
;	ai	  aj	ak	  al funct			  c0			c1			  c2			c3
   15     9    13    16	 2

[ virtual_sites2 ]
; Site   from				funct a
   39     1     2     2   -0.189

[ exclusions ]
;	ai	  aj
    1    39
   39     2
   39     3
   39    20
   39     4
   39    24
   39    19
   39    38

