GROwing Monsters And Cloning Shrimps
   39
    1LIG     BR    1  -1.619   0.723  -1.614
    1LIG     C1    2  -1.514   0.567  -1.591
    1LIG     C2    3  -1.433   0.524  -1.695
    1LIG     C3    4  -1.360   0.403  -1.686
    1LIG     C4    5  -1.351   0.343  -1.561
    1LIG     O1    6  -1.257   0.249  -1.528
    1LIG     C5    7  -1.169   0.202  -1.632
    1LIG     C6    8  -1.146   0.308  -1.745
    1LIG     C7    9  -1.282   0.347  -1.804
    1LIG     N1   10  -1.329   0.220  -1.870
    1LIG     HN   11  -1.329   0.126  -1.829
    1LIG     C8   12  -1.369   0.254  -1.987
    1LIG     N2   13  -1.394   0.385  -2.005
    1LIG     C9   14  -1.534   0.405  -1.965
    1LIG    C10   15  -1.295   0.439  -1.925
    1LIG     O2   16  -1.225   0.539  -1.949
    1LIG    C11   17  -1.228   0.066  -1.677
    1LIG    C12   18  -1.034   0.170  -1.565
    1LIG    C13   19  -1.434   0.386  -1.457
    1LIG    C14   20  -1.519   0.496  -1.473
    1LIG     N3   21  -1.395   0.167  -2.088
    1LIG     H1   22  -1.491   0.173  -2.120
    1LIG     H2   23  -1.330   0.178  -2.165
    1LIG     H3   24  -1.426   0.581  -1.780
    1LIG     H4   25  -1.098   0.394  -1.705
    1LIG     H5   26  -1.083   0.267  -1.822
    1LIG     H6   27  -1.298   0.184  -2.028
    1LIG     H7   28  -1.598   0.358  -2.036
    1LIG     H8   29  -1.555   0.510  -1.962
    1LIG     H9   30  -1.549   0.362  -1.868
    1LIG    H10   31  -1.167   0.025  -1.754
    1LIG    H11   32  -1.327   0.081  -1.713
    1LIG    H12   33  -1.230  -0.001  -1.594
    1LIG    H13   34  -0.966   0.134  -1.639
    1LIG    H14   35  -1.048   0.095  -1.490
    1LIG    H15   36  -0.995   0.259  -1.520
    1LIG    H16   37  -1.432   0.336  -1.366
    1LIG    H17   38  -1.584   0.523  -1.398
    1LIG    LP1   39  -1.724   0.879  -1.637
   0.00000   0.00000   0.00000
