GROup of MAchos and Cynical Suckers
   56
    1LIG     C1    1  -1.224   0.454  -1.675
    1LIG     N1    2  -1.253   0.352  -1.583
    1LIG     C2    3  -1.155   0.253  -1.589
    1LIG     C3    4  -1.058   0.300  -1.677
    1LIG     C4    5  -1.100   0.423  -1.730
    1LIG     C5    6  -1.303   0.575  -1.705
    1LIG     C6    7  -1.285   0.690  -1.625
    1LIG     C7    8  -1.362   0.805  -1.646
    1LIG     C8    9  -1.460   0.806  -1.745
    1LIG     C9   10  -1.472   0.697  -1.832
    1LIG    C10   11  -1.392   0.583  -1.812
    1LIG    C11   12  -1.554   0.921  -1.760
    1LIG      O   13  -1.607   0.945  -1.867
    1LIG     N2   14  -1.578   0.992  -1.644
    1LIG     H1   15  -1.545   0.955  -1.556
    1LIG    C12   16  -1.669   1.105  -1.638
    1LIG    C13   17  -1.742   1.112  -1.505
    1LIG    C14   18  -1.369   0.354  -1.492
    1LIG    C15   19  -1.503   0.324  -1.555
    1LIG     N3   20  -1.614   0.377  -1.496
    1LIG    C16   21  -1.734   0.354  -1.553
    1LIG     HN   22  -1.606   0.433  -1.411
    1LIG    C17   23  -1.747   0.281  -1.670
    1LIG    C18   24  -1.636   0.220  -1.725
    1LIG    C19   25  -1.512   0.239  -1.666
    1LIG     N4   26  -1.846   0.410  -1.492
    1LIG     H2   27  -1.902   0.334  -1.455
    1LIG     H3   28  -1.898   0.468  -1.557
    1LIG    C20   29  -1.148   0.126  -1.514
    1LIG    C21   30  -1.224   0.014  -1.547
    1LIG    C22   31  -1.216  -0.105  -1.472
    1LIG    C23   32  -1.126  -0.115  -1.367
    1LIG    C24   33  -1.045  -0.007  -1.335
    1LIG    C25   34  -1.057   0.113  -1.408
    1LIG     HC   35  -0.966   0.250  -1.702
    1LIG    HC1   36  -1.045   0.484  -1.800
    1LIG    HC2   37  -1.211   0.689  -1.547
    1LIG    HC3   38  -1.345   0.892  -1.586
    1LIG    HC4   39  -1.542   0.700  -1.914
    1LIG    HC5   40  -1.399   0.500  -1.882
    1LIG    HC6   41  -1.612   1.197  -1.652
    1LIG    HC7   42  -1.742   1.096  -1.718
    1LIG    HC8   43  -1.809   1.198  -1.505
    1LIG    HC9   44  -1.669   1.123  -1.424
    1LIG   HC10   45  -1.800   1.021  -1.490
    1LIG   HC11   46  -1.375   0.454  -1.447
    1LIG   HC12   47  -1.352   0.282  -1.412
    1LIG   HC13   48  -1.844   0.271  -1.717
    1LIG   HC14   49  -1.645   0.159  -1.814
    1LIG   HC15   50  -1.424   0.190  -1.704
    1LIG   HC16   51  -1.292   0.018  -1.631
    1LIG   HC17   52  -1.280  -0.188  -1.496
    1LIG   HC18   53  -1.119  -0.206  -1.310
    1LIG   HC19   54  -0.972  -0.014  -1.255
    1LIG   HC20   55  -0.994   0.197  -1.381
    1LIG    H26   56  -1.494   0.411  -1.620
   0.00000   0.00000   0.00000
