; Created by cgenff_charmm2gmx.py

[ moleculetype ]
; Name			   nrexcl
LIG				 3

[ atoms ]
;	 nr		  type	resnr residue  atom   cgnr	   charge		mass  typeB    chargeB		massB
; residue	 1 LIG rtp LIG q	qsum
     1     CG2R51      1    LIG     C1      1     -0.202     12.011   ;
     2     NG2R51      1    LIG     N1      2     -0.093     14.007   ;
     3     CG2R51      1    LIG     C2      3     -0.202     12.011   ;
     4     CG2R51      1    LIG     C3      4     -0.231     12.011   ;
     5     CG2R51      1    LIG     C4      5     -0.231     12.011   ;
     6     CG2R61      1    LIG     C5      6      0.129     12.011   ;
     7     CG2R61      1    LIG     C6      7     -0.119     12.011   ;
     8     CG2R61      1    LIG     C7      8     -0.059     12.011   ;
     9     CG2R61      1    LIG     C8      9     -0.108     12.011   ;
    10     CG2R61      1    LIG     C9     10     -0.059     12.011   ;
    11     CG2R61      1    LIG    C10     11     -0.119     12.011   ;
    12      CG2O1      1    LIG    C11     12      0.350     12.011   ;
    13      OG2D1      1    LIG      O     13     -0.467     15.999   ;
    14      NG2S1      1    LIG     N2     14     -0.392     14.007   ;
    15       HGP1      1    LIG     H1     15      0.297      1.008   ;
    16      CG321      1    LIG    C12     16      0.021     12.011   ;
    17      CG331      1    LIG    C13     17     -0.267     12.011   ;
    18      CG321      1    LIG    C14     18      0.137     12.011   ;
    19      CG311      1    LIG    C15     19      0.189     12.011   ;
    20      NG311      1    LIG     N3     20     -0.486     14.007   ;
    21     CG2D1O      1    LIG    C16     21      0.215     12.011   ;
    22     HGPAM1      1    LIG     HN     22      0.358      1.008   ;
    23     CG2DC1      1    LIG    C17     23     -0.435     12.011   ;
    24     CG2DC2      1    LIG    C18     24     -0.142     12.011   ;
    25     CG2DC2      1    LIG    C19     25     -0.306     12.011   ;
    26      NG321      1    LIG     N4     26     -0.745     14.007   ;
    27     HGPAM2      1    LIG     H2     27      0.404      1.008   ;
    28     HGPAM2      1    LIG     H3     28      0.404      1.008   ;
    29     CG2R61      1    LIG    C20     29      0.129     12.011   ;
    30     CG2R61      1    LIG    C21     30     -0.121     12.011   ;
    31     CG2R61      1    LIG    C22     31     -0.115     12.011   ;
    32     CG2R61      1    LIG    C23     32     -0.116     12.011   ;
    33     CG2R61      1    LIG    C24     33     -0.115     12.011   ;
    34     CG2R61      1    LIG    C25     34     -0.121     12.011   ;
    35      HGR51      1    LIG     HC     35      0.202      1.008   ;
    36      HGR51      1    LIG    HC1     36      0.202      1.008   ;
    37      HGR61      1    LIG    HC2     37      0.116      1.008   ;
    38      HGR61      1    LIG    HC3     38      0.116      1.008   ;
    39      HGR61      1    LIG    HC4     39      0.116      1.008   ;
    40      HGR61      1    LIG    HC5     40      0.116      1.008   ;
    41       HGA2      1    LIG    HC6     41      0.090      1.008   ;
    42       HGA2      1    LIG    HC7     42      0.090      1.008   ;
    43       HGA3      1    LIG    HC8     43      0.090      1.008   ;
    44       HGA3      1    LIG    HC9     44      0.090      1.008   ;
    45       HGA3      1    LIG   HC10     45      0.090      1.008   ;
    46       HGA2      1    LIG   HC11     46      0.090      1.008   ;
    47       HGA2      1    LIG   HC12     47      0.090      1.008   ;
    48       HGA4      1    LIG   HC13     48      0.150      1.008   ;
    49       HGA4      1    LIG   HC14     49      0.150      1.008   ;
    50       HGA4      1    LIG   HC15     50      0.150      1.008   ;
    51      HGR61      1    LIG   HC16     51      0.116      1.008   ;
    52      HGR61      1    LIG   HC17     52      0.116      1.008   ;
    53      HGR61      1    LIG   HC18     53      0.116      1.008   ;
    54      HGR61      1    LIG   HC19     54      0.116      1.008   ;
    55      HGR61      1    LIG   HC20     55      0.116      1.008   ;
    56       HGA1      1    LIG    H26     56      0.090      1.008   ;

[ bonds ]
;	ai	  aj funct			  c0			c1			  c2			c3
    1     5	 1 ;      CG2R51     CG2R51
    1     6	 1 ;      CG2R51     CG2R61
    1     2	 1 ;      CG2R51     NG2R51
    2     3	 1 ;      NG2R51     CG2R51
    2    18	 1 ;      NG2R51      CG321
    3     4	 1 ;      CG2R51     CG2R51
    3    29	 1 ;      CG2R51     CG2R61
    4     5	 1 ;      CG2R51     CG2R51
    4    35	 1 ;      CG2R51      HGR51
    5    36	 1 ;      CG2R51      HGR51
    6     7	 1 ;      CG2R61     CG2R61
    6    11	 1 ;      CG2R61     CG2R61
    7     8	 1 ;      CG2R61     CG2R61
    7    37	 1 ;      CG2R61      HGR61
    8     9	 1 ;      CG2R61     CG2R61
    8    38	 1 ;      CG2R61      HGR61
    9    10	 1 ;      CG2R61     CG2R61
    9    12	 1 ;      CG2R61      CG2O1
   10    11	 1 ;      CG2R61     CG2R61
   10    39	 1 ;      CG2R61      HGR61
   11    40	 1 ;      CG2R61      HGR61
   12    13	 1 ;       CG2O1      OG2D1
   12    14	 1 ;       CG2O1      NG2S1
   14    15	 1 ;       NG2S1       HGP1
   14    16	 1 ;       NG2S1      CG321
   16    17	 1 ;       CG321      CG331
   16    41	 1 ;       CG321       HGA2
   16    42	 1 ;       CG321       HGA2
   17    43	 1 ;       CG331       HGA3
   17    44	 1 ;       CG331       HGA3
   17    45	 1 ;       CG331       HGA3
   18    19	 1 ;       CG321      CG311
   18    46	 1 ;       CG321       HGA2
   18    47	 1 ;       CG321       HGA2
   19    25	 1 ;       CG311     CG2DC2
   19    20	 1 ;       CG311      NG311
   19    56	 1 ;       CG311       HGA1
   20    22	 1 ;       NG311     HGPAM1
   20    21	 1 ;       NG311     CG2D1O
   21    23	 1 ;      CG2D1O     CG2DC1
   21    26	 1 ;      CG2D1O      NG321
   23    24	 1 ;      CG2DC1     CG2DC2
   23    48	 1 ;      CG2DC1       HGA4
   24    25	 1 ;      CG2DC2     CG2DC2
   24    49	 1 ;      CG2DC2       HGA4
   25    50	 1 ;      CG2DC2       HGA4
   26    28	 1 ;       NG321     HGPAM2
   26    27	 1 ;       NG321     HGPAM2
   29    34	 1 ;      CG2R61     CG2R61
   29    30	 1 ;      CG2R61     CG2R61
   30    31	 1 ;      CG2R61     CG2R61
   30    51	 1 ;      CG2R61      HGR61
   31    32	 1 ;      CG2R61     CG2R61
   31    52	 1 ;      CG2R61      HGR61
   32    33	 1 ;      CG2R61     CG2R61
   32    53	 1 ;      CG2R61      HGR61
   33    34	 1 ;      CG2R61     CG2R61
   33    54	 1 ;      CG2R61      HGR61
   34    55	 1 ;      CG2R61      HGR61

[ pairs ]
;	ai	  aj funct			  c0			c1			  c2			c3
    1    29	 1
    1    19	 1
    1    46	 1
    1    47	 1
    1    35	 1
    1     8	 1
    1    37	 1
    1    10	 1
    1    40	 1
    2    36	 1
    2     7	 1
    2    11	 1
    2    35	 1
    2    34	 1
    2    30	 1
    2    25	 1
    2    20	 1
    2    56	 1
    3     6	 1
    3    19	 1
    3    46	 1
    3    47	 1
    3    36	 1
    3    33	 1
    3    55	 1
    3    31	 1
    3    51	 1
    4     6	 1
    4    18	 1
    4    34	 1
    4    30	 1
    5     7	 1
    5    11	 1
    5    18	 1
    5    29	 1
    6    36	 1
    6    18	 1
    6     9	 1
    6    38	 1
    6    39	 1
    7    10	 1
    7    40	 1
    7    12	 1
    8    11	 1
    8    39	 1
    8    13	 1
    8    14	 1
    9    37	 1
    9    40	 1
    9    15	 1
    9    16	 1
   10    38	 1
   10    13	 1
   10    14	 1
   11    37	 1
   11    12	 1
   12    38	 1
   12    39	 1
   12    17	 1
   12    41	 1
   12    42	 1
   13    15	 1
   13    16	 1
   14    43	 1
   14    44	 1
   14    45	 1
   15    17	 1
   15    41	 1
   15    42	 1
   18    29	 1
   18    24	 1
   18    50	 1
   18    22	 1
   18    21	 1
   19    23	 1
   19    26	 1
   19    49	 1
   20    46	 1
   20    47	 1
   20    24	 1
   20    50	 1
   20    48	 1
   20    28	 1
   20    27	 1
   21    25	 1
   21    56	 1
   21    49	 1
   22    25	 1
   22    56	 1
   22    23	 1
   22    26	 1
   23    28	 1
   23    27	 1
   23    50	 1
   24    56	 1
   24    26	 1
   25    46	 1
   25    47	 1
   25    48	 1
   26    48	 1
   29    35	 1
   29    32	 1
   29    52	 1
   29    54	 1
   30    33	 1
   30    55	 1
   30    53	 1
   31    34	 1
   31    54	 1
   32    51	 1
   32    55	 1
   33    52	 1
   34    51	 1
   34    53	 1
   35    36	 1
   37    38	 1
   39    40	 1
   41    43	 1
   41    44	 1
   41    45	 1
   42    43	 1
   42    44	 1
   42    45	 1
   46    56	 1
   47    56	 1
   48    49	 1
   49    50	 1
   50    56	 1
   51    52	 1
   52    53	 1
   53    54	 1
   54    55	 1

[ angles ]
;	ai	  aj	ak funct			c0			  c1			c2			  c3
    5     1     6	5 ;     CG2R51     CG2R51     CG2R61
    5     1     2	5 ;     CG2R51     CG2R51     NG2R51
    6     1     2	5 ;     CG2R61     CG2R51     NG2R51
    1     2     3	5 ;     CG2R51     NG2R51     CG2R51
    1     2    18	5 ;     CG2R51     NG2R51      CG321
    3     2    18	5 ;     CG2R51     NG2R51      CG321
    4     3    29	5 ;     CG2R51     CG2R51     CG2R61
    4     3     2	5 ;     CG2R51     CG2R51     NG2R51
   29     3     2	5 ;     CG2R61     CG2R51     NG2R51
    5     4     3	5 ;     CG2R51     CG2R51     CG2R51
    5     4    35	5 ;     CG2R51     CG2R51      HGR51
    3     4    35	5 ;     CG2R51     CG2R51      HGR51
    4     5     1	5 ;     CG2R51     CG2R51     CG2R51
    4     5    36	5 ;     CG2R51     CG2R51      HGR51
    1     5    36	5 ;     CG2R51     CG2R51      HGR51
    1     6     7	5 ;     CG2R51     CG2R61     CG2R61
    1     6    11	5 ;     CG2R51     CG2R61     CG2R61
    7     6    11	5 ;     CG2R61     CG2R61     CG2R61
    6     7     8	5 ;     CG2R61     CG2R61     CG2R61
    6     7    37	5 ;     CG2R61     CG2R61      HGR61
    8     7    37	5 ;     CG2R61     CG2R61      HGR61
    7     8     9	5 ;     CG2R61     CG2R61     CG2R61
    7     8    38	5 ;     CG2R61     CG2R61      HGR61
    9     8    38	5 ;     CG2R61     CG2R61      HGR61
    8     9    10	5 ;     CG2R61     CG2R61     CG2R61
    8     9    12	5 ;     CG2R61     CG2R61      CG2O1
   10     9    12	5 ;     CG2R61     CG2R61      CG2O1
   11    10     9	5 ;     CG2R61     CG2R61     CG2R61
   11    10    39	5 ;     CG2R61     CG2R61      HGR61
    9    10    39	5 ;     CG2R61     CG2R61      HGR61
    6    11    10	5 ;     CG2R61     CG2R61     CG2R61
    6    11    40	5 ;     CG2R61     CG2R61      HGR61
   10    11    40	5 ;     CG2R61     CG2R61      HGR61
    9    12    13	5 ;     CG2R61      CG2O1      OG2D1
    9    12    14	5 ;     CG2R61      CG2O1      NG2S1
   13    12    14	5 ;      OG2D1      CG2O1      NG2S1
   12    14    15	5 ;      CG2O1      NG2S1       HGP1
   12    14    16	5 ;      CG2O1      NG2S1      CG321
   15    14    16	5 ;       HGP1      NG2S1      CG321
   14    16    17	5 ;      NG2S1      CG321      CG331
   14    16    41	5 ;      NG2S1      CG321       HGA2
   14    16    42	5 ;      NG2S1      CG321       HGA2
   17    16    41	5 ;      CG331      CG321       HGA2
   17    16    42	5 ;      CG331      CG321       HGA2
   41    16    42	5 ;       HGA2      CG321       HGA2
   16    17    43	5 ;      CG321      CG331       HGA3
   16    17    44	5 ;      CG321      CG331       HGA3
   16    17    45	5 ;      CG321      CG331       HGA3
   43    17    44	5 ;       HGA3      CG331       HGA3
   43    17    45	5 ;       HGA3      CG331       HGA3
   44    17    45	5 ;       HGA3      CG331       HGA3
    2    18    19	5 ;     NG2R51      CG321      CG311
    2    18    46	5 ;     NG2R51      CG321       HGA2
    2    18    47	5 ;     NG2R51      CG321       HGA2
   19    18    46	5 ;      CG311      CG321       HGA2
   19    18    47	5 ;      CG311      CG321       HGA2
   46    18    47	5 ;       HGA2      CG321       HGA2
   18    19    25	5 ;      CG321      CG311     CG2DC2
   18    19    20	5 ;      CG321      CG311      NG311
   18    19    56	5 ;      CG321      CG311       HGA1
   25    19    20	5 ;     CG2DC2      CG311      NG311
   25    19    56	5 ;     CG2DC2      CG311       HGA1
   20    19    56	5 ;      NG311      CG311       HGA1
   19    20    22	5 ;      CG311      NG311     HGPAM1
   19    20    21	5 ;      CG311      NG311     CG2D1O
   22    20    21	5 ;     HGPAM1      NG311     CG2D1O
   20    21    23	5 ;      NG311     CG2D1O     CG2DC1
   20    21    26	5 ;      NG311     CG2D1O      NG321
   23    21    26	5 ;     CG2DC1     CG2D1O      NG321
   24    23    21	5 ;     CG2DC2     CG2DC1     CG2D1O
   24    23    48	5 ;     CG2DC2     CG2DC1       HGA4
   21    23    48	5 ;     CG2D1O     CG2DC1       HGA4
   25    24    23	5 ;     CG2DC2     CG2DC2     CG2DC1
   25    24    49	5 ;     CG2DC2     CG2DC2       HGA4
   23    24    49	5 ;     CG2DC1     CG2DC2       HGA4
   19    25    24	5 ;      CG311     CG2DC2     CG2DC2
   19    25    50	5 ;      CG311     CG2DC2       HGA4
   24    25    50	5 ;     CG2DC2     CG2DC2       HGA4
   21    26    28	5 ;     CG2D1O      NG321     HGPAM2
   21    26    27	5 ;     CG2D1O      NG321     HGPAM2
   28    26    27	5 ;     HGPAM2      NG321     HGPAM2
    3    29    34	5 ;     CG2R51     CG2R61     CG2R61
    3    29    30	5 ;     CG2R51     CG2R61     CG2R61
   34    29    30	5 ;     CG2R61     CG2R61     CG2R61
   29    30    31	5 ;     CG2R61     CG2R61     CG2R61
   29    30    51	5 ;     CG2R61     CG2R61      HGR61
   31    30    51	5 ;     CG2R61     CG2R61      HGR61
   30    31    32	5 ;     CG2R61     CG2R61     CG2R61
   30    31    52	5 ;     CG2R61     CG2R61      HGR61
   32    31    52	5 ;     CG2R61     CG2R61      HGR61
   33    32    31	5 ;     CG2R61     CG2R61     CG2R61
   33    32    53	5 ;     CG2R61     CG2R61      HGR61
   31    32    53	5 ;     CG2R61     CG2R61      HGR61
   34    33    32	5 ;     CG2R61     CG2R61     CG2R61
   34    33    54	5 ;     CG2R61     CG2R61      HGR61
   32    33    54	5 ;     CG2R61     CG2R61      HGR61
   29    34    33	5 ;     CG2R61     CG2R61     CG2R61
   29    34    55	5 ;     CG2R61     CG2R61      HGR61
   33    34    55	5 ;     CG2R61     CG2R61      HGR61

[ dihedrals ]
;	ai	  aj	ak	  al funct			  c0			c1			  c2			c3			  c4			c5
    6     1     5     4	 9 ;     CG2R61     CG2R51     CG2R51     CG2R51
    6     1     5    36	 9 ;     CG2R61     CG2R51     CG2R51      HGR51
    2     1     5     4	 9 ;     NG2R51     CG2R51     CG2R51     CG2R51
    2     1     5    36	 9 ;     NG2R51     CG2R51     CG2R51      HGR51
    5     1     6     7	 9 ;     CG2R51     CG2R51     CG2R61     CG2R61
    5     1     6    11	 9 ;     CG2R51     CG2R51     CG2R61     CG2R61
    2     1     6     7	 9 ;     NG2R51     CG2R51     CG2R61     CG2R61
    2     1     6    11	 9 ;     NG2R51     CG2R51     CG2R61     CG2R61
    5     1     2     3	 9 ;     CG2R51     CG2R51     NG2R51     CG2R51
    5     1     2    18	 9 ;     CG2R51     CG2R51     NG2R51      CG321
    6     1     2     3	 9 ;     CG2R61     CG2R51     NG2R51     CG2R51
    6     1     2    18	 9 ;     CG2R61     CG2R51     NG2R51      CG321
    1     2     3     4	 9 ;     CG2R51     NG2R51     CG2R51     CG2R51
    1     2     3    29	 9 ;     CG2R51     NG2R51     CG2R51     CG2R61
   18     2     3     4	 9 ;      CG321     NG2R51     CG2R51     CG2R51
   18     2     3    29	 9 ;      CG321     NG2R51     CG2R51     CG2R61
    1     2    18    19	 9 ;     CG2R51     NG2R51      CG321      CG311
    1     2    18    46	 9 ;     CG2R51     NG2R51      CG321       HGA2
    1     2    18    47	 9 ;     CG2R51     NG2R51      CG321       HGA2
    3     2    18    19	 9 ;     CG2R51     NG2R51      CG321      CG311
    3     2    18    46	 9 ;     CG2R51     NG2R51      CG321       HGA2
    3     2    18    47	 9 ;     CG2R51     NG2R51      CG321       HGA2
   29     3     4     5	 9 ;     CG2R61     CG2R51     CG2R51     CG2R51
   29     3     4    35	 9 ;     CG2R61     CG2R51     CG2R51      HGR51
    2     3     4     5	 9 ;     NG2R51     CG2R51     CG2R51     CG2R51
    2     3     4    35	 9 ;     NG2R51     CG2R51     CG2R51      HGR51
    4     3    29    34	 9 ;     CG2R51     CG2R51     CG2R61     CG2R61
    4     3    29    30	 9 ;     CG2R51     CG2R51     CG2R61     CG2R61
    2     3    29    34	 9 ;     NG2R51     CG2R51     CG2R61     CG2R61
    2     3    29    30	 9 ;     NG2R51     CG2R51     CG2R61     CG2R61
    3     4     5     1	 9 ;     CG2R51     CG2R51     CG2R51     CG2R51
    3     4     5    36	 9 ;     CG2R51     CG2R51     CG2R51      HGR51
   35     4     5     1	 9 ;      HGR51     CG2R51     CG2R51     CG2R51
   35     4     5    36	 9 ;      HGR51     CG2R51     CG2R51      HGR51
    1     6     7     8	 9 ;     CG2R51     CG2R61     CG2R61     CG2R61
    1     6     7    37	 9 ;     CG2R51     CG2R61     CG2R61      HGR61
   11     6     7     8	 9 ;     CG2R61     CG2R61     CG2R61     CG2R61
   11     6     7    37	 9 ;     CG2R61     CG2R61     CG2R61      HGR61
    1     6    11    10	 9 ;     CG2R51     CG2R61     CG2R61     CG2R61
    1     6    11    40	 9 ;     CG2R51     CG2R61     CG2R61      HGR61
    7     6    11    10	 9 ;     CG2R61     CG2R61     CG2R61     CG2R61
    7     6    11    40	 9 ;     CG2R61     CG2R61     CG2R61      HGR61
    6     7     8     9	 9 ;     CG2R61     CG2R61     CG2R61     CG2R61
    6     7     8    38	 9 ;     CG2R61     CG2R61     CG2R61      HGR61
   37     7     8     9	 9 ;      HGR61     CG2R61     CG2R61     CG2R61
   37     7     8    38	 9 ;      HGR61     CG2R61     CG2R61      HGR61
    7     8     9    10	 9 ;     CG2R61     CG2R61     CG2R61     CG2R61
    7     8     9    12	 9 ;     CG2R61     CG2R61     CG2R61      CG2O1
   38     8     9    10	 9 ;      HGR61     CG2R61     CG2R61     CG2R61
   38     8     9    12	 9 ;      HGR61     CG2R61     CG2R61      CG2O1
    8     9    10    11	 9 ;     CG2R61     CG2R61     CG2R61     CG2R61
    8     9    10    39	 9 ;     CG2R61     CG2R61     CG2R61      HGR61
   12     9    10    11	 9 ;      CG2O1     CG2R61     CG2R61     CG2R61
   12     9    10    39	 9 ;      CG2O1     CG2R61     CG2R61      HGR61
    8     9    12    13	 9 ;     CG2R61     CG2R61      CG2O1      OG2D1
    8     9    12    14	 9 ;     CG2R61     CG2R61      CG2O1      NG2S1
   10     9    12    13	 9 ;     CG2R61     CG2R61      CG2O1      OG2D1
   10     9    12    14	 9 ;     CG2R61     CG2R61      CG2O1      NG2S1
    9    10    11     6	 9 ;     CG2R61     CG2R61     CG2R61     CG2R61
    9    10    11    40	 9 ;     CG2R61     CG2R61     CG2R61      HGR61
   39    10    11     6	 9 ;      HGR61     CG2R61     CG2R61     CG2R61
   39    10    11    40	 9 ;      HGR61     CG2R61     CG2R61      HGR61
    9    12    14    15	 9 ;     CG2R61      CG2O1      NG2S1       HGP1
    9    12    14    16	 9 ;     CG2R61      CG2O1      NG2S1      CG321
   13    12    14    15	 9 ;      OG2D1      CG2O1      NG2S1       HGP1
   13    12    14    16	 9 ;      OG2D1      CG2O1      NG2S1      CG321
   12    14    16    17	 9 ;      CG2O1      NG2S1      CG321      CG331
   12    14    16    41	 9 ;      CG2O1      NG2S1      CG321       HGA2
   12    14    16    42	 9 ;      CG2O1      NG2S1      CG321       HGA2
   15    14    16    17	 9 ;       HGP1      NG2S1      CG321      CG331
   15    14    16    41	 9 ;       HGP1      NG2S1      CG321       HGA2
   15    14    16    42	 9 ;       HGP1      NG2S1      CG321       HGA2
   14    16    17    43	 9 ;      NG2S1      CG321      CG331       HGA3
   14    16    17    44	 9 ;      NG2S1      CG321      CG331       HGA3
   14    16    17    45	 9 ;      NG2S1      CG321      CG331       HGA3
   41    16    17    43	 9 ;       HGA2      CG321      CG331       HGA3
   41    16    17    44	 9 ;       HGA2      CG321      CG331       HGA3
   41    16    17    45	 9 ;       HGA2      CG321      CG331       HGA3
   42    16    17    43	 9 ;       HGA2      CG321      CG331       HGA3
   42    16    17    44	 9 ;       HGA2      CG321      CG331       HGA3
   42    16    17    45	 9 ;       HGA2      CG321      CG331       HGA3
    2    18    19    25	 9 ;     NG2R51      CG321      CG311     CG2DC2
    2    18    19    20	 9 ;     NG2R51      CG321      CG311      NG311
    2    18    19    56	 9 ;     NG2R51      CG321      CG311       HGA1
   46    18    19    25	 9 ;       HGA2      CG321      CG311     CG2DC2
   46    18    19    20	 9 ;       HGA2      CG321      CG311      NG311
   46    18    19    56	 9 ;       HGA2      CG321      CG311       HGA1
   47    18    19    25	 9 ;       HGA2      CG321      CG311     CG2DC2
   47    18    19    20	 9 ;       HGA2      CG321      CG311      NG311
   47    18    19    56	 9 ;       HGA2      CG321      CG311       HGA1
   18    19    25    24	 9 ;      CG321      CG311     CG2DC2     CG2DC2
   18    19    25    50	 9 ;      CG321      CG311     CG2DC2       HGA4
   20    19    25    24	 9 ;      NG311      CG311     CG2DC2     CG2DC2
   20    19    25    50	 9 ;      NG311      CG311     CG2DC2       HGA4
   56    19    25    24	 9 ;       HGA1      CG311     CG2DC2     CG2DC2
   56    19    25    50	 9 ;       HGA1      CG311     CG2DC2       HGA4
   18    19    20    22	 9 ;      CG321      CG311      NG311     HGPAM1
   18    19    20    21	 9 ;      CG321      CG311      NG311     CG2D1O
   25    19    20    22	 9 ;     CG2DC2      CG311      NG311     HGPAM1
   25    19    20    21	 9 ;     CG2DC2      CG311      NG311     CG2D1O
   56    19    20    22	 9 ;       HGA1      CG311      NG311     HGPAM1
   56    19    20    21	 9 ;       HGA1      CG311      NG311     CG2D1O
   19    20    21    23	 9 ;      CG311      NG311     CG2D1O     CG2DC1
   19    20    21    26	 9 ;      CG311      NG311     CG2D1O      NG321
   22    20    21    23	 9 ;     HGPAM1      NG311     CG2D1O     CG2DC1
   22    20    21    26	 9 ;     HGPAM1      NG311     CG2D1O      NG321
   20    21    23    24	 9 ;      NG311     CG2D1O     CG2DC1     CG2DC2
   20    21    23    48	 9 ;      NG311     CG2D1O     CG2DC1       HGA4
   26    21    23    24	 9 ;      NG321     CG2D1O     CG2DC1     CG2DC2
   26    21    23    48	 9 ;      NG321     CG2D1O     CG2DC1       HGA4
   20    21    26    28	 9 ;      NG311     CG2D1O      NG321     HGPAM2
   20    21    26    27	 9 ;      NG311     CG2D1O      NG321     HGPAM2
   23    21    26    28	 9 ;     CG2DC1     CG2D1O      NG321     HGPAM2
   23    21    26    27	 9 ;     CG2DC1     CG2D1O      NG321     HGPAM2
   21    23    24    25	 9 ;     CG2D1O     CG2DC1     CG2DC2     CG2DC2
   21    23    24    49	 9 ;     CG2D1O     CG2DC1     CG2DC2       HGA4
   48    23    24    25	 9 ;       HGA4     CG2DC1     CG2DC2     CG2DC2
   48    23    24    49	 9 ;       HGA4     CG2DC1     CG2DC2       HGA4
   23    24    25    19	 9 ;     CG2DC1     CG2DC2     CG2DC2      CG311
   23    24    25    50	 9 ;     CG2DC1     CG2DC2     CG2DC2       HGA4
   49    24    25    19	 9 ;       HGA4     CG2DC2     CG2DC2      CG311
   49    24    25    50	 9 ;       HGA4     CG2DC2     CG2DC2       HGA4
    3    29    34    33	 9 ;     CG2R51     CG2R61     CG2R61     CG2R61
    3    29    34    55	 9 ;     CG2R51     CG2R61     CG2R61      HGR61
   30    29    34    33	 9 ;     CG2R61     CG2R61     CG2R61     CG2R61
   30    29    34    55	 9 ;     CG2R61     CG2R61     CG2R61      HGR61
    3    29    30    31	 9 ;     CG2R51     CG2R61     CG2R61     CG2R61
    3    29    30    51	 9 ;     CG2R51     CG2R61     CG2R61      HGR61
   34    29    30    31	 9 ;     CG2R61     CG2R61     CG2R61     CG2R61
   34    29    30    51	 9 ;     CG2R61     CG2R61     CG2R61      HGR61
   29    30    31    32	 9 ;     CG2R61     CG2R61     CG2R61     CG2R61
   29    30    31    52	 9 ;     CG2R61     CG2R61     CG2R61      HGR61
   51    30    31    32	 9 ;      HGR61     CG2R61     CG2R61     CG2R61
   51    30    31    52	 9 ;      HGR61     CG2R61     CG2R61      HGR61
   30    31    32    33	 9 ;     CG2R61     CG2R61     CG2R61     CG2R61
   30    31    32    53	 9 ;     CG2R61     CG2R61     CG2R61      HGR61
   52    31    32    33	 9 ;      HGR61     CG2R61     CG2R61     CG2R61
   52    31    32    53	 9 ;      HGR61     CG2R61     CG2R61      HGR61
   31    32    33    34	 9 ;     CG2R61     CG2R61     CG2R61     CG2R61
   31    32    33    54	 9 ;     CG2R61     CG2R61     CG2R61      HGR61
   53    32    33    34	 9 ;      HGR61     CG2R61     CG2R61     CG2R61
   53    32    33    54	 9 ;      HGR61     CG2R61     CG2R61      HGR61
   32    33    34    29	 9 ;     CG2R61     CG2R61     CG2R61     CG2R61
   32    33    34    55	 9 ;     CG2R61     CG2R61     CG2R61      HGR61
   54    33    34    29	 9 ;      HGR61     CG2R61     CG2R61     CG2R61
   54    33    34    55	 9 ;      HGR61     CG2R61     CG2R61      HGR61

[ dihedrals ]
;	ai	  aj	ak	  al funct			  c0			c1			  c2			c3
   12     9    14    13	 2
   21    23    20    26	 2

