; Created by cgenff_charmm2gmx.py

[ moleculetype ]
; Name			   nrexcl
LIG				 3

[ atoms ]
;	 nr		  type	resnr residue  atom   cgnr	   charge		mass  typeB    chargeB		massB
; residue	 1 LIG rtp LIG q	qsum
     1      OG2D1      1    LIG      O      1     -0.317     15.999   ;
     2     CG2R53      1    LIG     C1      2     -0.401     12.011   ;
     3     NG2R53      1    LIG     N1      3     -0.223     14.007   ;
     4     CG3C53      1    LIG     C2      4      0.834     12.011   ;
     5      NG3P2      1    LIG     N2      5     -0.588     14.007   ;
     6       HGP2      1    LIG     HN      6      0.336      1.008   ;
     7     CG3C50      1    LIG     C3      7      1.379     12.011   ;
     8     CG2R61      1    LIG     C4      8     -0.215     12.011   ;
     9     CG2R61      1    LIG     C5      9     -0.131     12.011   ;
    10     CG2R61      1    LIG     C6     10     -0.105     12.011   ;
    11     CG2R61      1    LIG     C7     11     -0.116     12.011   ;
    12     CG2R61      1    LIG     C8     12     -0.105     12.011   ;
    13     CG2R61      1    LIG     C9     13     -0.131     12.011   ;
    14      CG311      1    LIG    C10     14     -0.044     12.011   ;
    15      CG321      1    LIG    C11     15     -0.129     12.011   ;
    16      CG321      1    LIG    C12     16     -0.241     12.011   ;
    17      CG321      1    LIG    C13     17     -0.154     12.011   ;
    18      CG321      1    LIG    C14     18     -0.241     12.011   ;
    19      CG321      1    LIG    C15     19     -0.129     12.011   ;
    20      NG3P3      1    LIG     N3     20     -0.267     14.007   ;
    21       HGP2      1    LIG     H1     21      0.301      1.008   ;
    22       HGP2      1    LIG     H2     22      0.301      1.008   ;
    23      CG321      1    LIG    C16     23     -0.059     12.011   ;
    24      CG321      1    LIG    C17     24     -0.207     12.011   ;
    25      CG321      1    LIG    C18     25     -0.166     12.011   ;
    26      CG321      1    LIG    C19     26     -0.182     12.011   ;
    27      CG321      1    LIG    C20     27     -0.180     12.011   ;
    28      CG331      1    LIG    C21     28     -0.270     12.011   ;
    29       HGA1      1    LIG     HC     29      0.073      1.008   ;
    30       HGP2      1    LIG    HN2     30      0.336      1.008   ;
    31      HGR61      1    LIG    HC1     31      0.116      1.008   ;
    32      HGR61      1    LIG    HC2     32      0.116      1.008   ;
    33      HGR61      1    LIG    HC3     33      0.116      1.008   ;
    34      HGR61      1    LIG    HC4     34      0.116      1.008   ;
    35      HGR61      1    LIG    HC5     35      0.116      1.008   ;
    36       HGA1      1    LIG    HC6     36      0.090      1.008   ;
    37       HGA2      1    LIG    HC7     37      0.090      1.008   ;
    38       HGA2      1    LIG    HC8     38      0.090      1.008   ;
    39       HGA2      1    LIG    HC9     39      0.090      1.008   ;
    40       HGA2      1    LIG   HC10     40      0.090      1.008   ;
    41       HGA2      1    LIG   HC11     41      0.090      1.008   ;
    42       HGA2      1    LIG   HC12     42      0.090      1.008   ;
    43       HGA2      1    LIG   HC13     43      0.090      1.008   ;
    44       HGA2      1    LIG   HC14     44      0.090      1.008   ;
    45       HGA2      1    LIG   HC15     45      0.090      1.008   ;
    46       HGA2      1    LIG   HC16     46      0.090      1.008   ;
    47       HGP2      1    LIG    HN1     47      0.301      1.008   ;
    48       HGA2      1    LIG   HC17     48      0.090      1.008   ;
    49       HGA2      1    LIG   HC18     49      0.090      1.008   ;
    50       HGA2      1    LIG   HC19     50      0.090      1.008   ;
    51       HGA2      1    LIG   HC20     51      0.090      1.008   ;
    52       HGA2      1    LIG   HC21     52      0.090      1.008   ;
    53       HGA2      1    LIG   HC22     53      0.090      1.008   ;
    54       HGA2      1    LIG   HC23     54      0.090      1.008   ;
    55       HGA2      1    LIG   HC24     55      0.090      1.008   ;
    56       HGA2      1    LIG   HC25     56      0.090      1.008   ;
    57       HGA2      1    LIG   HC26     57      0.090      1.008   ;
    58       HGA3      1    LIG   HC27     58      0.090      1.008   ;
    59       HGA3      1    LIG   HC28     59      0.090      1.008   ;
    60       HGA3      1    LIG   HC29     60      0.090      1.008   ;

[ bonds ]
;	ai	  aj funct			  c0			c1			  c2			c3
    1     2	 1 ;       OG2D1     CG2R53
    2     3	 1 ;      CG2R53     NG2R53
    2     7	 1 ;      CG2R53     CG3C50
    3    23	 1 ;      NG2R53      CG321
    3     4	 1 ;      NG2R53     CG3C53
    4    20	 1 ;      CG3C53      NG3P3
    4     5	 1 ;      CG3C53      NG3P2
    4    29	 1 ;      CG3C53       HGA1
    5     7	 1 ;       NG3P2     CG3C50
    5     6	 1 ;       NG3P2       HGP2
    5    30	 1 ;       NG3P2       HGP2
    7    14	 1 ;      CG3C50      CG311
    7     8	 1 ;      CG3C50     CG2R61
    8     9	 1 ;      CG2R61     CG2R61
    8    13	 1 ;      CG2R61     CG2R61
    9    10	 1 ;      CG2R61     CG2R61
    9    31	 1 ;      CG2R61      HGR61
   10    11	 1 ;      CG2R61     CG2R61
   10    32	 1 ;      CG2R61      HGR61
   11    12	 1 ;      CG2R61     CG2R61
   11    33	 1 ;      CG2R61      HGR61
   12    13	 1 ;      CG2R61     CG2R61
   12    34	 1 ;      CG2R61      HGR61
   13    35	 1 ;      CG2R61      HGR61
   14    19	 1 ;       CG311      CG321
   14    15	 1 ;       CG311      CG321
   14    36	 1 ;       CG311       HGA1
   15    16	 1 ;       CG321      CG321
   15    37	 1 ;       CG321       HGA2
   15    38	 1 ;       CG321       HGA2
   16    17	 1 ;       CG321      CG321
   16    39	 1 ;       CG321       HGA2
   16    40	 1 ;       CG321       HGA2
   17    18	 1 ;       CG321      CG321
   17    41	 1 ;       CG321       HGA2
   17    42	 1 ;       CG321       HGA2
   18    19	 1 ;       CG321      CG321
   18    43	 1 ;       CG321       HGA2
   18    44	 1 ;       CG321       HGA2
   19    45	 1 ;       CG321       HGA2
   19    46	 1 ;       CG321       HGA2
   20    22	 1 ;       NG3P3       HGP2
   20    21	 1 ;       NG3P3       HGP2
   20    47	 1 ;       NG3P3       HGP2
   23    24	 1 ;       CG321      CG321
   23    48	 1 ;       CG321       HGA2
   23    49	 1 ;       CG321       HGA2
   24    25	 1 ;       CG321      CG321
   24    50	 1 ;       CG321       HGA2
   24    51	 1 ;       CG321       HGA2
   25    26	 1 ;       CG321      CG321
   25    52	 1 ;       CG321       HGA2
   25    53	 1 ;       CG321       HGA2
   26    27	 1 ;       CG321      CG321
   26    54	 1 ;       CG321       HGA2
   26    55	 1 ;       CG321       HGA2
   27    28	 1 ;       CG321      CG331
   27    56	 1 ;       CG321       HGA2
   27    57	 1 ;       CG321       HGA2
   28    58	 1 ;       CG331       HGA3
   28    59	 1 ;       CG331       HGA3
   28    60	 1 ;       CG331       HGA3

[ pairs ]
;	ai	  aj funct			  c0			c1			  c2			c3
    1    23	 1
    1     4	 1
    1    14	 1
    1     5	 1
    1     8	 1
    2    24	 1
    2    48	 1
    2    49	 1
    2    20	 1
    2    29	 1
    2     6	 1
    2    30	 1
    2    19	 1
    2    15	 1
    2    36	 1
    2     9	 1
    2    13	 1
    3    14	 1
    3     8	 1
    3    22	 1
    3    21	 1
    3    47	 1
    3     6	 1
    3    30	 1
    3    25	 1
    3    50	 1
    3    51	 1
    4    24	 1
    4    48	 1
    4    49	 1
    4    14	 1
    4     8	 1
    5    23	 1
    5    22	 1
    5    21	 1
    5    47	 1
    5    19	 1
    5    15	 1
    5    36	 1
    5     9	 1
    5    13	 1
    6    20	 1
    6    29	 1
    6    14	 1
    6     8	 1
    7    23	 1
    7    20	 1
    7    29	 1
    7    10	 1
    7    31	 1
    7    12	 1
    7    35	 1
    7    18	 1
    7    45	 1
    7    46	 1
    7    16	 1
    7    37	 1
    7    38	 1
    8    30	 1
    8    19	 1
    8    15	 1
    8    36	 1
    8    11	 1
    8    32	 1
    8    34	 1
    9    14	 1
    9    12	 1
    9    35	 1
    9    33	 1
   10    13	 1
   10    34	 1
   11    31	 1
   11    35	 1
   12    32	 1
   13    14	 1
   13    31	 1
   13    33	 1
   14    30	 1
   14    17	 1
   14    39	 1
   14    40	 1
   14    43	 1
   14    44	 1
   15    18	 1
   15    45	 1
   15    46	 1
   15    41	 1
   15    42	 1
   16    19	 1
   16    36	 1
   16    43	 1
   16    44	 1
   17    37	 1
   17    38	 1
   17    45	 1
   17    46	 1
   18    36	 1
   18    39	 1
   18    40	 1
   19    37	 1
   19    38	 1
   19    41	 1
   19    42	 1
   20    23	 1
   20    30	 1
   21    29	 1
   22    29	 1
   23    29	 1
   23    26	 1
   23    52	 1
   23    53	 1
   24    27	 1
   24    54	 1
   24    55	 1
   25    48	 1
   25    49	 1
   25    28	 1
   25    56	 1
   25    57	 1
   26    50	 1
   26    51	 1
   26    58	 1
   26    59	 1
   26    60	 1
   27    52	 1
   27    53	 1
   28    54	 1
   28    55	 1
   29    47	 1
   29    30	 1
   31    32	 1
   32    33	 1
   33    34	 1
   34    35	 1
   36    45	 1
   36    46	 1
   36    37	 1
   36    38	 1
   37    39	 1
   37    40	 1
   38    39	 1
   38    40	 1
   39    41	 1
   39    42	 1
   40    41	 1
   40    42	 1
   41    43	 1
   41    44	 1
   42    43	 1
   42    44	 1
   43    45	 1
   43    46	 1
   44    45	 1
   44    46	 1
   48    50	 1
   48    51	 1
   49    50	 1
   49    51	 1
   50    52	 1
   50    53	 1
   51    52	 1
   51    53	 1
   52    54	 1
   52    55	 1
   53    54	 1
   53    55	 1
   54    56	 1
   54    57	 1
   55    56	 1
   55    57	 1
   56    58	 1
   56    59	 1
   56    60	 1
   57    58	 1
   57    59	 1
   57    60	 1

[ angles ]
;	ai	  aj	ak funct			c0			  c1			c2			  c3
    1     2     3	5 ;      OG2D1     CG2R53     NG2R53
    1     2     7	5 ;      OG2D1     CG2R53     CG3C50
    3     2     7	5 ;     NG2R53     CG2R53     CG3C50
   23     3     2	5 ;      CG321     NG2R53     CG2R53
   23     3     4	5 ;      CG321     NG2R53     CG3C53
    2     3     4	5 ;     CG2R53     NG2R53     CG3C53
    3     4    20	5 ;     NG2R53     CG3C53      NG3P3
    3     4     5	5 ;     NG2R53     CG3C53      NG3P2
    3     4    29	5 ;     NG2R53     CG3C53       HGA1
   20     4     5	5 ;      NG3P3     CG3C53      NG3P2
   20     4    29	5 ;      NG3P3     CG3C53       HGA1
    5     4    29	5 ;      NG3P2     CG3C53       HGA1
    4     5     7	5 ;     CG3C53      NG3P2     CG3C50
    4     5     6	5 ;     CG3C53      NG3P2       HGP2
    4     5    30	5 ;     CG3C53      NG3P2       HGP2
    7     5     6	5 ;     CG3C50      NG3P2       HGP2
    7     5    30	5 ;     CG3C50      NG3P2       HGP2
    6     5    30	5 ;       HGP2      NG3P2       HGP2
    2     7    14	5 ;     CG2R53     CG3C50      CG311
    2     7     5	5 ;     CG2R53     CG3C50      NG3P2
    2     7     8	5 ;     CG2R53     CG3C50     CG2R61
   14     7     5	5 ;      CG311     CG3C50      NG3P2
   14     7     8	5 ;      CG311     CG3C50     CG2R61
    5     7     8	5 ;      NG3P2     CG3C50     CG2R61
    7     8     9	5 ;     CG3C50     CG2R61     CG2R61
    7     8    13	5 ;     CG3C50     CG2R61     CG2R61
    9     8    13	5 ;     CG2R61     CG2R61     CG2R61
    8     9    10	5 ;     CG2R61     CG2R61     CG2R61
    8     9    31	5 ;     CG2R61     CG2R61      HGR61
   10     9    31	5 ;     CG2R61     CG2R61      HGR61
    9    10    11	5 ;     CG2R61     CG2R61     CG2R61
    9    10    32	5 ;     CG2R61     CG2R61      HGR61
   11    10    32	5 ;     CG2R61     CG2R61      HGR61
   10    11    12	5 ;     CG2R61     CG2R61     CG2R61
   10    11    33	5 ;     CG2R61     CG2R61      HGR61
   12    11    33	5 ;     CG2R61     CG2R61      HGR61
   13    12    11	5 ;     CG2R61     CG2R61     CG2R61
   13    12    34	5 ;     CG2R61     CG2R61      HGR61
   11    12    34	5 ;     CG2R61     CG2R61      HGR61
    8    13    12	5 ;     CG2R61     CG2R61     CG2R61
    8    13    35	5 ;     CG2R61     CG2R61      HGR61
   12    13    35	5 ;     CG2R61     CG2R61      HGR61
   19    14     7	5 ;      CG321      CG311     CG3C50
   19    14    15	5 ;      CG321      CG311      CG321
   19    14    36	5 ;      CG321      CG311       HGA1
    7    14    15	5 ;     CG3C50      CG311      CG321
    7    14    36	5 ;     CG3C50      CG311       HGA1
   15    14    36	5 ;      CG321      CG311       HGA1
   14    15    16	5 ;      CG311      CG321      CG321
   14    15    37	5 ;      CG311      CG321       HGA2
   14    15    38	5 ;      CG311      CG321       HGA2
   16    15    37	5 ;      CG321      CG321       HGA2
   16    15    38	5 ;      CG321      CG321       HGA2
   37    15    38	5 ;       HGA2      CG321       HGA2
   17    16    15	5 ;      CG321      CG321      CG321
   17    16    39	5 ;      CG321      CG321       HGA2
   17    16    40	5 ;      CG321      CG321       HGA2
   15    16    39	5 ;      CG321      CG321       HGA2
   15    16    40	5 ;      CG321      CG321       HGA2
   39    16    40	5 ;       HGA2      CG321       HGA2
   18    17    16	5 ;      CG321      CG321      CG321
   18    17    41	5 ;      CG321      CG321       HGA2
   18    17    42	5 ;      CG321      CG321       HGA2
   16    17    41	5 ;      CG321      CG321       HGA2
   16    17    42	5 ;      CG321      CG321       HGA2
   41    17    42	5 ;       HGA2      CG321       HGA2
   19    18    17	5 ;      CG321      CG321      CG321
   19    18    43	5 ;      CG321      CG321       HGA2
   19    18    44	5 ;      CG321      CG321       HGA2
   17    18    43	5 ;      CG321      CG321       HGA2
   17    18    44	5 ;      CG321      CG321       HGA2
   43    18    44	5 ;       HGA2      CG321       HGA2
   18    19    14	5 ;      CG321      CG321      CG311
   18    19    45	5 ;      CG321      CG321       HGA2
   18    19    46	5 ;      CG321      CG321       HGA2
   14    19    45	5 ;      CG311      CG321       HGA2
   14    19    46	5 ;      CG311      CG321       HGA2
   45    19    46	5 ;       HGA2      CG321       HGA2
   22    20     4	5 ;       HGP2      NG3P3     CG3C53
   22    20    21	5 ;       HGP2      NG3P3       HGP2
   22    20    47	5 ;       HGP2      NG3P3       HGP2
    4    20    21	5 ;     CG3C53      NG3P3       HGP2
    4    20    47	5 ;     CG3C53      NG3P3       HGP2
   21    20    47	5 ;       HGP2      NG3P3       HGP2
   24    23     3	5 ;      CG321      CG321     NG2R53
   24    23    48	5 ;      CG321      CG321       HGA2
   24    23    49	5 ;      CG321      CG321       HGA2
    3    23    48	5 ;     NG2R53      CG321       HGA2
    3    23    49	5 ;     NG2R53      CG321       HGA2
   48    23    49	5 ;       HGA2      CG321       HGA2
   23    24    25	5 ;      CG321      CG321      CG321
   23    24    50	5 ;      CG321      CG321       HGA2
   23    24    51	5 ;      CG321      CG321       HGA2
   25    24    50	5 ;      CG321      CG321       HGA2
   25    24    51	5 ;      CG321      CG321       HGA2
   50    24    51	5 ;       HGA2      CG321       HGA2
   24    25    26	5 ;      CG321      CG321      CG321
   24    25    52	5 ;      CG321      CG321       HGA2
   24    25    53	5 ;      CG321      CG321       HGA2
   26    25    52	5 ;      CG321      CG321       HGA2
   26    25    53	5 ;      CG321      CG321       HGA2
   52    25    53	5 ;       HGA2      CG321       HGA2
   25    26    27	5 ;      CG321      CG321      CG321
   25    26    54	5 ;      CG321      CG321       HGA2
   25    26    55	5 ;      CG321      CG321       HGA2
   27    26    54	5 ;      CG321      CG321       HGA2
   27    26    55	5 ;      CG321      CG321       HGA2
   54    26    55	5 ;       HGA2      CG321       HGA2
   28    27    26	5 ;      CG331      CG321      CG321
   28    27    56	5 ;      CG331      CG321       HGA2
   28    27    57	5 ;      CG331      CG321       HGA2
   26    27    56	5 ;      CG321      CG321       HGA2
   26    27    57	5 ;      CG321      CG321       HGA2
   56    27    57	5 ;       HGA2      CG321       HGA2
   27    28    58	5 ;      CG321      CG331       HGA3
   27    28    59	5 ;      CG321      CG331       HGA3
   27    28    60	5 ;      CG321      CG331       HGA3
   58    28    59	5 ;       HGA3      CG331       HGA3
   58    28    60	5 ;       HGA3      CG331       HGA3
   59    28    60	5 ;       HGA3      CG331       HGA3

[ dihedrals ]
;	ai	  aj	ak	  al funct			  c0			c1			  c2			c3			  c4			c5
    1     2     3    23	 9 ;      OG2D1     CG2R53     NG2R53      CG321
    1     2     3     4	 9 ;      OG2D1     CG2R53     NG2R53     CG3C53
    7     2     3    23	 9 ;     CG3C50     CG2R53     NG2R53      CG321
    7     2     3     4	 9 ;     CG3C50     CG2R53     NG2R53     CG3C53
    1     2     7    14	 9 ;      OG2D1     CG2R53     CG3C50      CG311
    1     2     7     5	 9 ;      OG2D1     CG2R53     CG3C50      NG3P2
    1     2     7     8	 9 ;      OG2D1     CG2R53     CG3C50     CG2R61
    3     2     7    14	 9 ;     NG2R53     CG2R53     CG3C50      CG311
    3     2     7     5	 9 ;     NG2R53     CG2R53     CG3C50      NG3P2
    3     2     7     8	 9 ;     NG2R53     CG2R53     CG3C50     CG2R61
    2     3    23    24	 9 ;     CG2R53     NG2R53      CG321      CG321
    2     3    23    48	 9 ;     CG2R53     NG2R53      CG321       HGA2
    2     3    23    49	 9 ;     CG2R53     NG2R53      CG321       HGA2
    4     3    23    24	 9 ;     CG3C53     NG2R53      CG321      CG321
    4     3    23    48	 9 ;     CG3C53     NG2R53      CG321       HGA2
    4     3    23    49	 9 ;     CG3C53     NG2R53      CG321       HGA2
   23     3     4    20	 9 ;      CG321     NG2R53     CG3C53      NG3P3
   23     3     4     5	 9 ;      CG321     NG2R53     CG3C53      NG3P2
   23     3     4    29	 9 ;      CG321     NG2R53     CG3C53       HGA1
    2     3     4    20	 9 ;     CG2R53     NG2R53     CG3C53      NG3P3
    2     3     4     5	 9 ;     CG2R53     NG2R53     CG3C53      NG3P2
    2     3     4    29	 9 ;     CG2R53     NG2R53     CG3C53       HGA1
    3     4    20    22	 9 ;     NG2R53     CG3C53      NG3P3       HGP2
    3     4    20    21	 9 ;     NG2R53     CG3C53      NG3P3       HGP2
    3     4    20    47	 9 ;     NG2R53     CG3C53      NG3P3       HGP2
    5     4    20    22	 9 ;      NG3P2     CG3C53      NG3P3       HGP2
    5     4    20    21	 9 ;      NG3P2     CG3C53      NG3P3       HGP2
    5     4    20    47	 9 ;      NG3P2     CG3C53      NG3P3       HGP2
   29     4    20    22	 9 ;       HGA1     CG3C53      NG3P3       HGP2
   29     4    20    21	 9 ;       HGA1     CG3C53      NG3P3       HGP2
   29     4    20    47	 9 ;       HGA1     CG3C53      NG3P3       HGP2
    3     4     5     7	 9 ;     NG2R53     CG3C53      NG3P2     CG3C50
    3     4     5     6	 9 ;     NG2R53     CG3C53      NG3P2       HGP2
    3     4     5    30	 9 ;     NG2R53     CG3C53      NG3P2       HGP2
   20     4     5     7	 9 ;      NG3P3     CG3C53      NG3P2     CG3C50
   20     4     5     6	 9 ;      NG3P3     CG3C53      NG3P2       HGP2
   20     4     5    30	 9 ;      NG3P3     CG3C53      NG3P2       HGP2
   29     4     5     7	 9 ;       HGA1     CG3C53      NG3P2     CG3C50
   29     4     5     6	 9 ;       HGA1     CG3C53      NG3P2       HGP2
   29     4     5    30	 9 ;       HGA1     CG3C53      NG3P2       HGP2
    4     5     7     2	 9 ;     CG3C53      NG3P2     CG3C50     CG2R53
    4     5     7    14	 9 ;     CG3C53      NG3P2     CG3C50      CG311
    4     5     7     8	 9 ;     CG3C53      NG3P2     CG3C50     CG2R61
    6     5     7     2	 9 ;       HGP2      NG3P2     CG3C50     CG2R53
    6     5     7    14	 9 ;       HGP2      NG3P2     CG3C50      CG311
    6     5     7     8	 9 ;       HGP2      NG3P2     CG3C50     CG2R61
   30     5     7     2	 9 ;       HGP2      NG3P2     CG3C50     CG2R53
   30     5     7    14	 9 ;       HGP2      NG3P2     CG3C50      CG311
   30     5     7     8	 9 ;       HGP2      NG3P2     CG3C50     CG2R61
    2     7    14    19	 9 ;     CG2R53     CG3C50      CG311      CG321
    2     7    14    15	 9 ;     CG2R53     CG3C50      CG311      CG321
    2     7    14    36	 9 ;     CG2R53     CG3C50      CG311       HGA1
    5     7    14    19	 9 ;      NG3P2     CG3C50      CG311      CG321
    5     7    14    15	 9 ;      NG3P2     CG3C50      CG311      CG321
    5     7    14    36	 9 ;      NG3P2     CG3C50      CG311       HGA1
    8     7    14    19	 9 ;     CG2R61     CG3C50      CG311      CG321
    8     7    14    15	 9 ;     CG2R61     CG3C50      CG311      CG321
    8     7    14    36	 9 ;     CG2R61     CG3C50      CG311       HGA1
    2     7     8     9	 9 ;     CG2R53     CG3C50     CG2R61     CG2R61
    2     7     8    13	 9 ;     CG2R53     CG3C50     CG2R61     CG2R61
   14     7     8     9	 9 ;      CG311     CG3C50     CG2R61     CG2R61
   14     7     8    13	 9 ;      CG311     CG3C50     CG2R61     CG2R61
    5     7     8     9	 9 ;      NG3P2     CG3C50     CG2R61     CG2R61
    5     7     8    13	 9 ;      NG3P2     CG3C50     CG2R61     CG2R61
    7     8     9    10	 9 ;     CG3C50     CG2R61     CG2R61     CG2R61
    7     8     9    31	 9 ;     CG3C50     CG2R61     CG2R61      HGR61
   13     8     9    10	 9 ;     CG2R61     CG2R61     CG2R61     CG2R61
   13     8     9    31	 9 ;     CG2R61     CG2R61     CG2R61      HGR61
    7     8    13    12	 9 ;     CG3C50     CG2R61     CG2R61     CG2R61
    7     8    13    35	 9 ;     CG3C50     CG2R61     CG2R61      HGR61
    9     8    13    12	 9 ;     CG2R61     CG2R61     CG2R61     CG2R61
    9     8    13    35	 9 ;     CG2R61     CG2R61     CG2R61      HGR61
    8     9    10    11	 9 ;     CG2R61     CG2R61     CG2R61     CG2R61
    8     9    10    32	 9 ;     CG2R61     CG2R61     CG2R61      HGR61
   31     9    10    11	 9 ;      HGR61     CG2R61     CG2R61     CG2R61
   31     9    10    32	 9 ;      HGR61     CG2R61     CG2R61      HGR61
    9    10    11    12	 9 ;     CG2R61     CG2R61     CG2R61     CG2R61
    9    10    11    33	 9 ;     CG2R61     CG2R61     CG2R61      HGR61
   32    10    11    12	 9 ;      HGR61     CG2R61     CG2R61     CG2R61
   32    10    11    33	 9 ;      HGR61     CG2R61     CG2R61      HGR61
   10    11    12    13	 9 ;     CG2R61     CG2R61     CG2R61     CG2R61
   10    11    12    34	 9 ;     CG2R61     CG2R61     CG2R61      HGR61
   33    11    12    13	 9 ;      HGR61     CG2R61     CG2R61     CG2R61
   33    11    12    34	 9 ;      HGR61     CG2R61     CG2R61      HGR61
   11    12    13     8	 9 ;     CG2R61     CG2R61     CG2R61     CG2R61
   11    12    13    35	 9 ;     CG2R61     CG2R61     CG2R61      HGR61
   34    12    13     8	 9 ;      HGR61     CG2R61     CG2R61     CG2R61
   34    12    13    35	 9 ;      HGR61     CG2R61     CG2R61      HGR61
    7    14    19    18	 9 ;     CG3C50      CG311      CG321      CG321
    7    14    19    45	 9 ;     CG3C50      CG311      CG321       HGA2
    7    14    19    46	 9 ;     CG3C50      CG311      CG321       HGA2
   15    14    19    18	 9 ;      CG321      CG311      CG321      CG321
   15    14    19    45	 9 ;      CG321      CG311      CG321       HGA2
   15    14    19    46	 9 ;      CG321      CG311      CG321       HGA2
   36    14    19    18	 9 ;       HGA1      CG311      CG321      CG321
   36    14    19    45	 9 ;       HGA1      CG311      CG321       HGA2
   36    14    19    46	 9 ;       HGA1      CG311      CG321       HGA2
   19    14    15    16	 9 ;      CG321      CG311      CG321      CG321
   19    14    15    37	 9 ;      CG321      CG311      CG321       HGA2
   19    14    15    38	 9 ;      CG321      CG311      CG321       HGA2
    7    14    15    16	 9 ;     CG3C50      CG311      CG321      CG321
    7    14    15    37	 9 ;     CG3C50      CG311      CG321       HGA2
    7    14    15    38	 9 ;     CG3C50      CG311      CG321       HGA2
   36    14    15    16	 9 ;       HGA1      CG311      CG321      CG321
   36    14    15    37	 9 ;       HGA1      CG311      CG321       HGA2
   36    14    15    38	 9 ;       HGA1      CG311      CG321       HGA2
   14    15    16    17	 9 ;      CG311      CG321      CG321      CG321
   14    15    16    39	 9 ;      CG311      CG321      CG321       HGA2
   14    15    16    40	 9 ;      CG311      CG321      CG321       HGA2
   37    15    16    17	 9 ;       HGA2      CG321      CG321      CG321
   37    15    16    39	 9 ;       HGA2      CG321      CG321       HGA2
   37    15    16    40	 9 ;       HGA2      CG321      CG321       HGA2
   38    15    16    17	 9 ;       HGA2      CG321      CG321      CG321
   38    15    16    39	 9 ;       HGA2      CG321      CG321       HGA2
   38    15    16    40	 9 ;       HGA2      CG321      CG321       HGA2
   15    16    17    18	 9 ;      CG321      CG321      CG321      CG321
   15    16    17    41	 9 ;      CG321      CG321      CG321       HGA2
   15    16    17    42	 9 ;      CG321      CG321      CG321       HGA2
   39    16    17    18	 9 ;       HGA2      CG321      CG321      CG321
   39    16    17    41	 9 ;       HGA2      CG321      CG321       HGA2
   39    16    17    42	 9 ;       HGA2      CG321      CG321       HGA2
   40    16    17    18	 9 ;       HGA2      CG321      CG321      CG321
   40    16    17    41	 9 ;       HGA2      CG321      CG321       HGA2
   40    16    17    42	 9 ;       HGA2      CG321      CG321       HGA2
   16    17    18    19	 9 ;      CG321      CG321      CG321      CG321
   16    17    18    43	 9 ;      CG321      CG321      CG321       HGA2
   16    17    18    44	 9 ;      CG321      CG321      CG321       HGA2
   41    17    18    19	 9 ;       HGA2      CG321      CG321      CG321
   41    17    18    43	 9 ;       HGA2      CG321      CG321       HGA2
   41    17    18    44	 9 ;       HGA2      CG321      CG321       HGA2
   42    17    18    19	 9 ;       HGA2      CG321      CG321      CG321
   42    17    18    43	 9 ;       HGA2      CG321      CG321       HGA2
   42    17    18    44	 9 ;       HGA2      CG321      CG321       HGA2
   17    18    19    14	 9 ;      CG321      CG321      CG321      CG311
   17    18    19    45	 9 ;      CG321      CG321      CG321       HGA2
   17    18    19    46	 9 ;      CG321      CG321      CG321       HGA2
   43    18    19    14	 9 ;       HGA2      CG321      CG321      CG311
   43    18    19    45	 9 ;       HGA2      CG321      CG321       HGA2
   43    18    19    46	 9 ;       HGA2      CG321      CG321       HGA2
   44    18    19    14	 9 ;       HGA2      CG321      CG321      CG311
   44    18    19    45	 9 ;       HGA2      CG321      CG321       HGA2
   44    18    19    46	 9 ;       HGA2      CG321      CG321       HGA2
    3    23    24    25	 9 ;     NG2R53      CG321      CG321      CG321
    3    23    24    50	 9 ;     NG2R53      CG321      CG321       HGA2
    3    23    24    51	 9 ;     NG2R53      CG321      CG321       HGA2
   48    23    24    25	 9 ;       HGA2      CG321      CG321      CG321
   48    23    24    50	 9 ;       HGA2      CG321      CG321       HGA2
   48    23    24    51	 9 ;       HGA2      CG321      CG321       HGA2
   49    23    24    25	 9 ;       HGA2      CG321      CG321      CG321
   49    23    24    50	 9 ;       HGA2      CG321      CG321       HGA2
   49    23    24    51	 9 ;       HGA2      CG321      CG321       HGA2
   23    24    25    26	 9 ;      CG321      CG321      CG321      CG321
   23    24    25    52	 9 ;      CG321      CG321      CG321       HGA2
   23    24    25    53	 9 ;      CG321      CG321      CG321       HGA2
   50    24    25    26	 9 ;       HGA2      CG321      CG321      CG321
   50    24    25    52	 9 ;       HGA2      CG321      CG321       HGA2
   50    24    25    53	 9 ;       HGA2      CG321      CG321       HGA2
   51    24    25    26	 9 ;       HGA2      CG321      CG321      CG321
   51    24    25    52	 9 ;       HGA2      CG321      CG321       HGA2
   51    24    25    53	 9 ;       HGA2      CG321      CG321       HGA2
   24    25    26    27	 9 ;      CG321      CG321      CG321      CG321
   24    25    26    54	 9 ;      CG321      CG321      CG321       HGA2
   24    25    26    55	 9 ;      CG321      CG321      CG321       HGA2
   52    25    26    27	 9 ;       HGA2      CG321      CG321      CG321
   52    25    26    54	 9 ;       HGA2      CG321      CG321       HGA2
   52    25    26    55	 9 ;       HGA2      CG321      CG321       HGA2
   53    25    26    27	 9 ;       HGA2      CG321      CG321      CG321
   53    25    26    54	 9 ;       HGA2      CG321      CG321       HGA2
   53    25    26    55	 9 ;       HGA2      CG321      CG321       HGA2
   25    26    27    28	 9 ;      CG321      CG321      CG321      CG331
   25    26    27    56	 9 ;      CG321      CG321      CG321       HGA2
   25    26    27    57	 9 ;      CG321      CG321      CG321       HGA2
   54    26    27    28	 9 ;       HGA2      CG321      CG321      CG331
   54    26    27    56	 9 ;       HGA2      CG321      CG321       HGA2
   54    26    27    57	 9 ;       HGA2      CG321      CG321       HGA2
   55    26    27    28	 9 ;       HGA2      CG321      CG321      CG331
   55    26    27    56	 9 ;       HGA2      CG321      CG321       HGA2
   55    26    27    57	 9 ;       HGA2      CG321      CG321       HGA2
   26    27    28    58	 9 ;      CG321      CG321      CG331       HGA3
   26    27    28    59	 9 ;      CG321      CG321      CG331       HGA3
   26    27    28    60	 9 ;      CG321      CG321      CG331       HGA3
   56    27    28    58	 9 ;       HGA2      CG321      CG331       HGA3
   56    27    28    59	 9 ;       HGA2      CG321      CG331       HGA3
   56    27    28    60	 9 ;       HGA2      CG321      CG331       HGA3
   57    27    28    58	 9 ;       HGA2      CG321      CG331       HGA3
   57    27    28    59	 9 ;       HGA2      CG321      CG331       HGA3
   57    27    28    60	 9 ;       HGA2      CG321      CG331       HGA3

[ dihedrals ]
;	ai	  aj	ak	  al funct			  c0			c1			  c2			c3
    2     7     3     1	 2

