Guyana Rwanda Oman Macau Angola Cameroon Senegal
   60
    1LIG      O    1  -1.152   0.409  -1.686
    1LIG     C1    2  -1.167   0.418  -1.565
    1LIG     N1    3  -1.133   0.525  -1.486
    1LIG     C2    4  -1.150   0.490  -1.357
    1LIG     N2    5  -1.205   0.375  -1.335
    1LIG     HN    6  -1.228   0.334  -1.244
    1LIG     C3    7  -1.230   0.314  -1.470
    1LIG     C4    8  -1.380   0.306  -1.504
    1LIG     C5    9  -1.425   0.228  -1.612
    1LIG     C6   10  -1.562   0.209  -1.637
    1LIG     C7   11  -1.656   0.269  -1.554
    1LIG     C8   12  -1.614   0.347  -1.447
    1LIG     C9   13  -1.478   0.364  -1.421
    1LIG    C10   14  -1.153   0.179  -1.473
    1LIG    C11   15  -1.121   0.129  -1.330
    1LIG    C12   16  -1.042  -0.002  -1.331
    1LIG    C13   17  -0.913   0.013  -1.409
    1LIG    C14   18  -0.940   0.059  -1.551
    1LIG    C15   19  -1.021   0.188  -1.554
    1LIG     N3   20  -1.109   0.567  -1.253
    1LIG     H1   21  -1.150   0.534  -1.166
    1LIG     H2   22  -1.009   0.578  -1.246
    1LIG    C16   23  -1.108   0.656  -1.541
    1LIG    C17   24  -1.215   0.757  -1.497
    1LIG    C18   25  -1.334   0.774  -1.593
    1LIG    C19   26  -1.464   0.714  -1.539
    1LIG    C20   27  -1.547   0.649  -1.649
    1LIG    C21   28  -1.458   0.577  -1.749
    1LIG     HC   29  -1.248   0.538  -1.356
    1LIG    HN2   30  -1.114   0.332  -1.332
    1LIG    HC1   31  -1.353   0.182  -1.679
    1LIG    HC2   32  -1.594   0.147  -1.719
    1LIG    HC3   33  -1.762   0.255  -1.573
    1LIG    HC4   34  -1.688   0.394  -1.383
    1LIG    HC5   35  -1.447   0.424  -1.337
    1LIG    HC6   36  -1.216   0.104  -1.521
    1LIG    HC7   37  -1.215   0.114  -1.276
    1LIG    HC8   38  -1.063   0.206  -1.278
    1LIG    HC9   39  -1.019  -0.030  -1.228
    1LIG   HC10   40  -1.103  -0.079  -1.376
    1LIG   HC11   41  -0.862  -0.084  -1.412
    1LIG   HC12   42  -0.848   0.085  -1.359
    1LIG   HC13   43  -0.845   0.076  -1.602
    1LIG   HC14   44  -0.995  -0.019  -1.604
    1LIG   HC15   45  -1.045   0.212  -1.657
    1LIG   HC16   46  -0.960   0.269  -1.512
    1LIG    HN1   47  -1.148   0.659  -1.270
    1LIG   HC17   48  -1.108   0.650  -1.650
    1LIG   HC18   49  -1.010   0.692  -1.508
    1LIG   HC19   50  -1.168   0.855  -1.485
    1LIG   HC20   51  -1.254   0.726  -1.400
    1LIG   HC21   52  -1.350   0.881  -1.610
    1LIG   HC22   53  -1.310   0.726  -1.688
    1LIG   HC23   54  -1.522   0.793  -1.492
    1LIG   HC24   55  -1.439   0.639  -1.464
    1LIG   HC25   56  -1.615   0.576  -1.604
    1LIG   HC26   57  -1.605   0.726  -1.700
    1LIG   HC27   58  -1.513   0.495  -1.795
    1LIG   HC28   59  -1.370   0.538  -1.699
    1LIG   HC29   60  -1.427   0.648  -1.827
   0.00000   0.00000   0.00000
