Good gRace! Old Maple Actually Chews Slate
   59
    1LIG     C1    1  -1.213   0.447  -1.685
    1LIG     N1    2  -1.246   0.347  -1.591
    1LIG     C2    3  -1.156   0.239  -1.602
    1LIG     C3    4  -1.068   0.273  -1.703
    1LIG     C4    5  -1.102   0.400  -1.753
    1LIG     C5    6  -1.286   0.572  -1.716
    1LIG     C6    7  -1.262   0.695  -1.653
    1LIG     C7    8  -1.346   0.805  -1.674
    1LIG     C8    9  -1.451   0.797  -1.765
    1LIG     C9   10  -1.467   0.681  -1.841
    1LIG    C10   11  -1.387   0.570  -1.815
    1LIG    C11   12  -1.547   0.911  -1.775
    1LIG      O   13  -1.647   0.903  -1.845
    1LIG     N2   14  -1.509   1.026  -1.708
    1LIG     H1   15  -1.420   1.029  -1.660
    1LIG    C12   16  -1.582   1.151  -1.719
    1LIG    C13   17  -1.638   1.200  -1.586
    1LIG    C14   18  -1.739   1.104  -1.525
    1LIG    C15   19  -1.357   0.354  -1.495
    1LIG    C16   20  -1.491   0.318  -1.556
    1LIG     N3   21  -1.600   0.376  -1.498
    1LIG    C17   22  -1.720   0.355  -1.556
    1LIG     HN   23  -1.592   0.433  -1.414
    1LIG    C18   24  -1.737   0.279  -1.671
    1LIG    C19   25  -1.626   0.214  -1.725
    1LIG    C20   26  -1.502   0.232  -1.665
    1LIG     N4   27  -1.831   0.417  -1.498
    1LIG     H2   28  -1.874   0.350  -1.435
    1LIG     H3   29  -1.896   0.451  -1.568
    1LIG    C21   30  -1.148   0.116  -1.519
    1LIG    C22   31  -1.225   0.001  -1.543
    1LIG    C23   32  -1.215  -0.112  -1.461
    1LIG    C24   33  -1.124  -0.116  -1.357
    1LIG    C25   34  -1.043  -0.006  -1.333
    1LIG    C26   35  -1.057   0.109  -1.412
    1LIG     HC   36  -0.986   0.212  -1.737
    1LIG    HC1   37  -1.050   0.452  -1.832
    1LIG    HC2   38  -1.176   0.705  -1.588
    1LIG    HC3   39  -1.329   0.896  -1.619
    1LIG    HC4   40  -1.541   0.677  -1.919
    1LIG    HC5   41  -1.402   0.479  -1.872
    1LIG    HC6   42  -1.515   1.227  -1.759
    1LIG    HC7   43  -1.665   1.137  -1.789
    1LIG    HC8   44  -1.686   1.296  -1.602
    1LIG    HC9   45  -1.555   1.213  -1.516
    1LIG   HC10   46  -1.775   1.145  -1.430
    1LIG   HC11   47  -1.823   1.092  -1.593
    1LIG   HC12   48  -1.692   1.008  -1.508
    1LIG   HC13   49  -1.362   0.455  -1.456
    1LIG   HC14   50  -1.336   0.285  -1.413
    1LIG   HC15   51  -1.833   0.271  -1.719
    1LIG   HC16   52  -1.636   0.151  -1.811
    1LIG   HC17   53  -1.415   0.179  -1.702
    1LIG   HC18   54  -1.294  -0.000  -1.626
    1LIG   HC19   55  -1.280  -0.197  -1.479
    1LIG   HC20   56  -1.115  -0.205  -1.295
    1LIG   HC21   57  -0.970  -0.009  -1.254
    1LIG   HC22   58  -0.995   0.195  -1.391
    1LIG    H28   59  -1.500   0.234  -1.487
   0.00000   0.00000   0.00000
