Guyana Rwanda Oman Macau Angola Cameroon Senegal
   73
    1LIG      S    1  -2.099   0.483  -1.667
    1LIG     O1    2  -2.103   0.616  -1.612
    1LIG     O2    3  -2.178   0.439  -1.778
    1LIG     N1    4  -1.937   0.442  -1.700
    1LIG     C1    5  -1.887   0.327  -1.618
    1LIG     C2    6  -1.811   0.375  -1.492
    1LIG     C3    7  -1.664   0.417  -1.507
    1LIG     N2    8  -1.588   0.322  -1.598
    1LIG     C4    9  -1.660   0.273  -1.721
    1LIG     C5   10  -1.801   0.225  -1.692
    1LIG     C6   11  -1.645   0.563  -1.542
    1LIG     C7   12  -2.021   0.257  -1.569
    1LIG     N3   13  -2.110   0.370  -1.542
    1LIG      H   14  -1.569   0.239  -1.541
    1LIG     C8   15  -1.874   0.514  -1.806
    1LIG     C9   16  -1.805   0.633  -1.785
    1LIG    C10   17  -1.758   0.705  -1.894
    1LIG      F   18  -1.693   0.820  -1.875
    1LIG    C11   19  -1.780   0.661  -2.025
    1LIG    C12   20  -1.838   0.537  -2.045
    1LIG    C13   21  -1.878   0.461  -1.935
    1LIG    C14   22  -2.237   0.358  -1.478
    1LIG    C15   23  -2.350   0.303  -1.538
    1LIG    C16   24  -2.472   0.309  -1.470
    1LIG    C17   25  -2.475   0.368  -1.344
    1LIG     N4   26  -2.367   0.421  -1.284
    1LIG    C18   27  -2.251   0.417  -1.353
    1LIG     HN   28  -2.372   0.463  -1.191
    1LIG    C19   29  -1.447   0.372  -1.639
    1LIG    C20   30  -1.346   0.365  -1.529
    1LIG    C21   31  -1.321   0.241  -1.469
    1LIG    C22   32  -1.234   0.227  -1.361
    1LIG    C23   33  -1.167   0.340  -1.314
    1LIG    C24   34  -1.189   0.464  -1.373
    1LIG    C25   35  -1.278   0.477  -1.480
    1LIG     O3   36  -1.209   0.108  -1.299
    1LIG    C26   37  -1.133   0.012  -1.373
    1LIG    C27   38  -0.985   0.019  -1.335
    1LIG    C28   39  -1.188  -0.126  -1.340
    1LIG    HC2   40  -1.865   0.461  -1.452
    1LIG    HC3   41  -1.816   0.295  -1.418
    1LIG     HC   42  -1.620   0.404  -1.408
    1LIG    HC4   43  -1.603   0.190  -1.764
    1LIG    HC5   44  -1.664   0.354  -1.794
    1LIG    HC6   45  -1.850   0.202  -1.786
    1LIG    HC7   46  -1.795   0.134  -1.632
    1LIG    HC1   47  -1.578   0.609  -1.470
    1LIG    HC8   48  -1.742   0.614  -1.539
    1LIG    HC9   49  -1.604   0.571  -1.642
    1LIG   HC10   50  -2.062   0.193  -1.647
    1LIG   HC11   51  -2.004   0.200  -1.478
    1LIG   HC12   52  -1.789   0.669  -1.684
    1LIG   HC13   53  -1.751   0.723  -2.109
    1LIG   HC14   54  -1.853   0.499  -2.146
    1LIG   HC15   55  -1.913   0.360  -1.950
    1LIG   HC16   56  -2.343   0.257  -1.636
    1LIG   HC17   57  -2.561   0.268  -1.514
    1LIG   HC18   58  -2.570   0.373  -1.293
    1LIG   HC19   59  -2.164   0.462  -1.308
    1LIG   HC20   60  -1.456   0.476  -1.671
    1LIG   HC21   61  -1.412   0.312  -1.723
    1LIG   HC22   62  -1.371   0.153  -1.508
    1LIG   HC23   63  -1.098   0.330  -1.232
    1LIG   HC24   64  -1.137   0.551  -1.336
    1LIG   HC25   65  -1.294   0.573  -1.526
    1LIG   HC26   66  -1.143   0.031  -1.480
    1LIG   HC27   67  -0.945   0.117  -1.359
    1LIG   HC28   68  -0.929  -0.057  -1.390
    1LIG   HC29   69  -0.974   0.000  -1.228
    1LIG   HC30   70  -1.294  -0.130  -1.367
    1LIG   HC31   71  -1.133  -0.202  -1.395
    1LIG   HC32   72  -1.178  -0.145  -1.233
    1LIG    H36   73  -2.454   0.272  -1.298
   0.00000   0.00000   0.00000
