Good gRace! Old Maple Actually Chews Slate
   79
    1LIG     C1    1  -1.796   0.746  -1.459
    1LIG     C2    2  -1.914   0.729  -1.558
    1LIG     C3    3  -1.874   0.672  -1.693
    1LIG     C4    4  -1.896   0.536  -1.722
    1LIG     C5    5  -1.862   0.484  -1.848
    1LIG     C6    6  -1.806   0.566  -1.945
    1LIG     C7    7  -1.784   0.701  -1.917
    1LIG     C8    8  -1.817   0.753  -1.792
    1LIG     N1    9  -1.690   0.642  -1.464
    1LIG     C9   10  -1.704   0.511  -1.421
    1LIG     O1   11  -1.799   0.477  -1.350
    1LIG     H1   12  -1.604   0.667  -1.512
    1LIG    C10   13  -1.606   0.409  -1.476
    1LIG    C11   14  -1.467   0.439  -1.472
    1LIG    C12   15  -1.372   0.356  -1.535
    1LIG    C13   16  -1.415   0.245  -1.606
    1LIG    C14   17  -1.550   0.213  -1.609
    1LIG    C15   18  -1.647   0.292  -1.545
    1LIG    C16   19  -1.789   0.242  -1.554
    1LIG     N2   20  -1.232   0.390  -1.528
    1LIG      S   21  -1.124   0.288  -1.446
    1LIG     O2   22  -1.199   0.208  -1.351
    1LIG     O3   23  -1.012   0.368  -1.400
    1LIG    C17   24  -1.065   0.178  -1.574
    1LIG    C18   25  -1.190   0.524  -1.558
    1LIG    C19   26  -1.131   0.550  -1.682
    1LIG    C20   27  -1.088   0.679  -1.714
    1LIG    C21   28  -1.104   0.783  -1.622
    1LIG    C22   29  -1.158   0.757  -1.497
    1LIG    C23   30  -1.200   0.627  -1.465
    1LIG    C24   31  -1.738   0.891  -1.452
    1LIG    C25   32  -1.742   0.979  -1.579
    1LIG     N3   33  -1.597   1.014  -1.608
    1LIG     H2   34  -1.595   1.042  -1.707
    1LIG     H3   35  -1.572   1.099  -1.556
    1LIG    C26   36  -1.494   0.911  -1.582
    1LIG    C27   37  -1.449   0.849  -1.712
    1LIG    C28   38  -1.468   0.712  -1.737
    1LIG    C29   39  -1.431   0.655  -1.860
    1LIG    C30   40  -1.376   0.737  -1.959
    1LIG    C31   41  -1.358   0.873  -1.936
    1LIG    C32   42  -1.394   0.929  -1.813
    1LIG    C33   43  -1.450   0.507  -1.887
    1LIG     F1   44  -1.488   0.481  -2.016
    1LIG     F2   45  -1.336   0.436  -1.867
    1LIG     F3   46  -1.545   0.451  -1.808
    1LIG     O4   47  -1.807   0.968  -1.350
    1LIG     H4   48  -1.865   0.907  -1.301
    1LIG     HC   49  -1.843   0.732  -1.361
    1LIG    HC2   50  -1.988   0.663  -1.513
    1LIG    HC3   51  -1.960   0.827  -1.574
    1LIG    HC1   52  -1.939   0.471  -1.647
    1LIG    HC4   53  -1.880   0.379  -1.869
    1LIG    HC5   54  -1.781   0.526  -2.042
    1LIG    HC6   55  -1.741   0.765  -1.992
    1LIG    HC7   56  -1.799   0.858  -1.771
    1LIG    HC8   57  -1.434   0.527  -1.419
    1LIG    HC9   58  -1.344   0.184  -1.660
    1LIG   HC10   59  -1.582   0.124  -1.662
    1LIG   HC11   60  -1.855   0.310  -1.501
    1LIG   HC12   61  -1.819   0.235  -1.658
    1LIG   HC13   62  -1.795   0.143  -1.508
    1LIG   HC14   63  -0.994   0.107  -1.531
    1LIG   HC15   64  -1.150   0.123  -1.616
    1LIG   HC16   65  -1.016   0.236  -1.652
    1LIG   HC17   66  -1.118   0.470  -1.753
    1LIG   HC18   67  -1.043   0.699  -1.810
    1LIG   HC19   68  -1.073   0.883  -1.648
    1LIG   HC20   69  -1.169   0.836  -1.425
    1LIG   HC21   70  -1.241   0.607  -1.367
    1LIG   HC22   71  -1.634   0.883  -1.421
    1LIG   HC23   72  -1.800   1.070  -1.561
    1LIG   HC24   73  -1.785   0.924  -1.662
    1LIG   HC25   74  -1.408   0.958  -1.532
    1LIG   HC26   75  -1.535   0.834  -1.517
    1LIG   HC27   76  -1.511   0.649  -1.660
    1LIG   HC28   77  -1.348   0.694  -2.055
    1LIG   HC29   78  -1.316   0.936  -2.013
    1LIG   HC30   79  -1.379   1.034  -1.796
   0.00000   0.00000   0.00000
