; Created by cgenff_charmm2gmx.py

[ moleculetype ]
; Name			   nrexcl
LIG				 3

[ atoms ]
;	 nr		  type	resnr residue  atom   cgnr	   charge		mass  typeB    chargeB		massB
; residue	 1 LIG rtp LIG q	qsum
     1      CG311      1    LIG     C1      1      0.010     12.011   ;
     2      CG321      1    LIG     C2      2     -0.111     12.011   ;
     3     CG2R61      1    LIG     C3      3     -0.019     12.011   ;
     4     CG2R61      1    LIG     C4      4     -0.123     12.011   ;
     5     CG2R61      1    LIG     C5      5     -0.112     12.011   ;
     6     CG2R61      1    LIG     C6      6     -0.116     12.011   ;
     7     CG2R61      1    LIG     C7      7     -0.112     12.011   ;
     8     CG2R61      1    LIG     C8      8     -0.123     12.011   ;
     9      NG2S1      1    LIG     N1      9     -0.226     14.007   ;
    10      CG2O1      1    LIG     C9     10      0.303     12.011   ;
    11      OG2D1      1    LIG     O1     11     -0.463     15.999   ;
    12       HGP1      1    LIG     H1     12      0.262      1.008   ;
    13     CG2R61      1    LIG    C10     13     -0.112     12.011   ;
    14     CG2R61      1    LIG    C11     14     -0.082     12.011   ;
    15     CG2R61      1    LIG    C12     15      0.151     12.011   ;
    16     CG2R61      1    LIG    C13     16     -0.138     12.011   ;
    17     CG2R61      1    LIG    C14     17     -0.115     12.011   ;
    18     CG2R61      1    LIG    C15     18      0.114     12.011   ;
    19      CG331      1    LIG    C16     19     -0.285     12.011   ;
    20      NG301      1    LIG     N2     20     -0.231     14.007   ;
    21      SG3O2      1    LIG      S     21      0.466     32.060   ;
    22      OG2P1      1    LIG     O2     22     -0.412     15.999   ;
    23      OG2P1      1    LIG     O3     23     -0.412     15.999   ;
    24      CG331      1    LIG    C17     24      0.033     12.011   ;
    25     CG2R61      1    LIG    C18     25      0.149     12.011   ;
    26     CG2R61      1    LIG    C19     26     -0.123     12.011   ;
    27     CG2R61      1    LIG    C20     27     -0.112     12.011   ;
    28     CG2R61      1    LIG    C21     28     -0.116     12.011   ;
    29     CG2R61      1    LIG    C22     29     -0.112     12.011   ;
    30     CG2R61      1    LIG    C23     30     -0.123     12.011   ;
    31      CG311      1    LIG    C24     31      0.094     12.011   ;
    32      CG324      1    LIG    C25     32      0.178     12.011   ;
    33      NG3P2      1    LIG     N3     33     -0.444     14.007   ;
    34       HGP2      1    LIG     H2     34      0.348      1.008   ;
    35       HGP2      1    LIG     H3     35      0.348      1.008   ;
    36      CG324      1    LIG    C26     36      0.171     12.011   ;
    37     CG2R61      1    LIG    C27     37      0.055     12.011   ;
    38     CG2R61      1    LIG    C28     38     -0.038     12.011   ;
    39     CG2R61      1    LIG    C29     39     -0.278     12.011   ;
    40     CG2R61      1    LIG    C30     40     -0.035     12.011   ;
    41     CG2R61      1    LIG    C31     41     -0.089     12.011   ;
    42     CG2R61      1    LIG    C32     42     -0.119     12.011   ;
    43      CG302      1    LIG    C33     43      0.605     12.011   ;
    44       FGA3      1    LIG     F1     44     -0.176     18.998   ;
    45       FGA3      1    LIG     F2     45     -0.176     18.998   ;
    46       FGA3      1    LIG     F3     46     -0.176     18.998   ;
    47      OG311      1    LIG     O4     47     -0.625     15.999   ;
    48       HGP1      1    LIG     H4     48      0.415      1.008   ;
    49       HGA1      1    LIG     HC     49      0.090      1.008   ;
    50       HGA2      1    LIG    HC2     50      0.090      1.008   ;
    51       HGA2      1    LIG    HC3     51      0.090      1.008   ;
    52      HGR61      1    LIG    HC1     52      0.116      1.008   ;
    53      HGR61      1    LIG    HC4     53      0.116      1.008   ;
    54      HGR61      1    LIG    HC5     54      0.116      1.008   ;
    55      HGR61      1    LIG    HC6     55      0.116      1.008   ;
    56      HGR61      1    LIG    HC7     56      0.116      1.008   ;
    57      HGR61      1    LIG    HC8     57      0.116      1.008   ;
    58      HGR61      1    LIG    HC9     58      0.116      1.008   ;
    59      HGR61      1    LIG   HC10     59      0.116      1.008   ;
    60       HGA3      1    LIG   HC11     60      0.090      1.008   ;
    61       HGA3      1    LIG   HC12     61      0.090      1.008   ;
    62       HGA3      1    LIG   HC13     62      0.090      1.008   ;
    63       HGA3      1    LIG   HC14     63      0.090      1.008   ;
    64       HGA3      1    LIG   HC15     64      0.090      1.008   ;
    65       HGA3      1    LIG   HC16     65      0.090      1.008   ;
    66      HGR61      1    LIG   HC17     66      0.116      1.008   ;
    67      HGR61      1    LIG   HC18     67      0.116      1.008   ;
    68      HGR61      1    LIG   HC19     68      0.116      1.008   ;
    69      HGR61      1    LIG   HC20     69      0.116      1.008   ;
    70      HGR61      1    LIG   HC21     70      0.116      1.008   ;
    71       HGA1      1    LIG   HC22     71      0.090      1.008   ;
    72       HGA2      1    LIG   HC23     72      0.090      1.008   ;
    73       HGA2      1    LIG   HC24     73      0.090      1.008   ;
    74       HGA2      1    LIG   HC25     74      0.090      1.008   ;
    75       HGA2      1    LIG   HC26     75      0.090      1.008   ;
    76      HGR61      1    LIG   HC27     76      0.116      1.008   ;
    77      HGR61      1    LIG   HC28     77      0.116      1.008   ;
    78      HGR61      1    LIG   HC29     78      0.116      1.008   ;
    79      HGR61      1    LIG   HC30     79      0.116      1.008   ;

[ bonds ]
;	ai	  aj funct			  c0			c1			  c2			c3
    1    31	 1 ;       CG311      CG311
    1     9	 1 ;       CG311      NG2S1
    1     2	 1 ;       CG311      CG321
    1    49	 1 ;       CG311       HGA1
    2     3	 1 ;       CG321     CG2R61
    2    50	 1 ;       CG321       HGA2
    2    51	 1 ;       CG321       HGA2
    3     8	 1 ;      CG2R61     CG2R61
    3     4	 1 ;      CG2R61     CG2R61
    4     5	 1 ;      CG2R61     CG2R61
    4    52	 1 ;      CG2R61      HGR61
    5     6	 1 ;      CG2R61     CG2R61
    5    53	 1 ;      CG2R61      HGR61
    6     7	 1 ;      CG2R61     CG2R61
    6    54	 1 ;      CG2R61      HGR61
    7     8	 1 ;      CG2R61     CG2R61
    7    55	 1 ;      CG2R61      HGR61
    8    56	 1 ;      CG2R61      HGR61
    9    12	 1 ;       NG2S1       HGP1
    9    10	 1 ;       NG2S1      CG2O1
   10    13	 1 ;       CG2O1     CG2R61
   10    11	 1 ;       CG2O1      OG2D1
   13    14	 1 ;      CG2R61     CG2R61
   13    18	 1 ;      CG2R61     CG2R61
   14    15	 1 ;      CG2R61     CG2R61
   14    57	 1 ;      CG2R61      HGR61
   15    20	 1 ;      CG2R61      NG301
   15    16	 1 ;      CG2R61     CG2R61
   16    17	 1 ;      CG2R61     CG2R61
   16    58	 1 ;      CG2R61      HGR61
   17    18	 1 ;      CG2R61     CG2R61
   17    59	 1 ;      CG2R61      HGR61
   18    19	 1 ;      CG2R61      CG331
   19    60	 1 ;       CG331       HGA3
   19    61	 1 ;       CG331       HGA3
   19    62	 1 ;       CG331       HGA3
   20    25	 1 ;       NG301     CG2R61
   20    21	 1 ;       NG301      SG3O2
   21    24	 1 ;       SG3O2      CG331
   21    23	 1 ;       SG3O2      OG2P1
   21    22	 1 ;       SG3O2      OG2P1
   24    63	 1 ;       CG331       HGA3
   24    64	 1 ;       CG331       HGA3
   24    65	 1 ;       CG331       HGA3
   25    26	 1 ;      CG2R61     CG2R61
   25    30	 1 ;      CG2R61     CG2R61
   26    27	 1 ;      CG2R61     CG2R61
   26    66	 1 ;      CG2R61      HGR61
   27    28	 1 ;      CG2R61     CG2R61
   27    67	 1 ;      CG2R61      HGR61
   28    29	 1 ;      CG2R61     CG2R61
   28    68	 1 ;      CG2R61      HGR61
   29    30	 1 ;      CG2R61     CG2R61
   29    69	 1 ;      CG2R61      HGR61
   30    70	 1 ;      CG2R61      HGR61
   31    32	 1 ;       CG311      CG324
   31    47	 1 ;       CG311      OG311
   31    71	 1 ;       CG311       HGA1
   32    33	 1 ;       CG324      NG3P2
   32    72	 1 ;       CG324       HGA2
   32    73	 1 ;       CG324       HGA2
   33    34	 1 ;       NG3P2       HGP2
   33    36	 1 ;       NG3P2      CG324
   33    35	 1 ;       NG3P2       HGP2
   36    37	 1 ;       CG324     CG2R61
   36    74	 1 ;       CG324       HGA2
   36    75	 1 ;       CG324       HGA2
   37    42	 1 ;      CG2R61     CG2R61
   37    38	 1 ;      CG2R61     CG2R61
   38    39	 1 ;      CG2R61     CG2R61
   38    76	 1 ;      CG2R61      HGR61
   39    40	 1 ;      CG2R61     CG2R61
   39    43	 1 ;      CG2R61      CG302
   40    41	 1 ;      CG2R61     CG2R61
   40    77	 1 ;      CG2R61      HGR61
   41    42	 1 ;      CG2R61     CG2R61
   41    78	 1 ;      CG2R61      HGR61
   42    79	 1 ;      CG2R61      HGR61
   43    44	 1 ;       CG302       FGA3
   43    45	 1 ;       CG302       FGA3
   43    46	 1 ;       CG302       FGA3
   47    48	 1 ;       OG311       HGP1

[ pairs ]
;	ai	  aj funct			  c0			c1			  c2			c3
    1     8	 1
    1     4	 1
    1    13	 1
    1    11	 1
    1    33	 1
    1    72	 1
    1    73	 1
    1    48	 1
    2    32	 1
    2    47	 1
    2    71	 1
    2    12	 1
    2    10	 1
    2     7	 1
    2    56	 1
    2     5	 1
    2    52	 1
    3    31	 1
    3     9	 1
    3    49	 1
    3     6	 1
    3    53	 1
    3    55	 1
    4    50	 1
    4    51	 1
    4     7	 1
    4    56	 1
    4    54	 1
    5     8	 1
    5    55	 1
    6    52	 1
    6    56	 1
    7    53	 1
    8    50	 1
    8    51	 1
    8    52	 1
    8    54	 1
    9    32	 1
    9    47	 1
    9    71	 1
    9    50	 1
    9    51	 1
    9    14	 1
    9    18	 1
   10    31	 1
   10    49	 1
   10    15	 1
   10    57	 1
   10    17	 1
   10    19	 1
   11    12	 1
   11    14	 1
   11    18	 1
   12    31	 1
   12    49	 1
   12    13	 1
   13    20	 1
   13    16	 1
   13    59	 1
   13    60	 1
   13    61	 1
   13    62	 1
   14    17	 1
   14    19	 1
   14    25	 1
   14    21	 1
   14    58	 1
   15    18	 1
   15    59	 1
   15    26	 1
   15    30	 1
   15    24	 1
   15    23	 1
   15    22	 1
   16    57	 1
   16    25	 1
   16    21	 1
   16    19	 1
   17    20	 1
   17    60	 1
   17    61	 1
   17    62	 1
   18    57	 1
   18    58	 1
   19    59	 1
   20    57	 1
   20    58	 1
   20    63	 1
   20    64	 1
   20    65	 1
   20    27	 1
   20    66	 1
   20    29	 1
   20    70	 1
   21    26	 1
   21    30	 1
   22    25	 1
   22    63	 1
   22    64	 1
   22    65	 1
   23    25	 1
   23    63	 1
   23    64	 1
   23    65	 1
   24    25	 1
   25    28	 1
   25    67	 1
   25    69	 1
   26    29	 1
   26    70	 1
   26    68	 1
   27    30	 1
   27    69	 1
   28    66	 1
   28    70	 1
   29    67	 1
   30    66	 1
   30    68	 1
   31    50	 1
   31    51	 1
   31    34	 1
   31    36	 1
   31    35	 1
   32    49	 1
   32    48	 1
   32    37	 1
   32    74	 1
   32    75	 1
   33    47	 1
   33    71	 1
   33    42	 1
   33    38	 1
   34    72	 1
   34    73	 1
   34    37	 1
   34    74	 1
   34    75	 1
   35    72	 1
   35    73	 1
   35    37	 1
   35    74	 1
   35    75	 1
   36    72	 1
   36    73	 1
   36    41	 1
   36    79	 1
   36    39	 1
   36    76	 1
   37    40	 1
   37    43	 1
   37    78	 1
   38    74	 1
   38    75	 1
   38    41	 1
   38    79	 1
   38    77	 1
   38    44	 1
   38    45	 1
   38    46	 1
   39    42	 1
   39    78	 1
   40    76	 1
   40    44	 1
   40    45	 1
   40    46	 1
   40    79	 1
   41    43	 1
   42    74	 1
   42    75	 1
   42    76	 1
   42    77	 1
   43    76	 1
   43    77	 1
   47    49	 1
   47    72	 1
   47    73	 1
   48    71	 1
   49    71	 1
   49    50	 1
   49    51	 1
   52    53	 1
   53    54	 1
   54    55	 1
   55    56	 1
   58    59	 1
   66    67	 1
   67    68	 1
   68    69	 1
   69    70	 1
   71    72	 1
   71    73	 1
   77    78	 1
   78    79	 1

[ angles ]
;	ai	  aj	ak funct			c0			  c1			c2			  c3
   31     1     9	5 ;      CG311      CG311      NG2S1
   31     1     2	5 ;      CG311      CG311      CG321
   31     1    49	5 ;      CG311      CG311       HGA1
    9     1     2	5 ;      NG2S1      CG311      CG321
    9     1    49	5 ;      NG2S1      CG311       HGA1
    2     1    49	5 ;      CG321      CG311       HGA1
    3     2     1	5 ;     CG2R61      CG321      CG311
    3     2    50	5 ;     CG2R61      CG321       HGA2
    3     2    51	5 ;     CG2R61      CG321       HGA2
    1     2    50	5 ;      CG311      CG321       HGA2
    1     2    51	5 ;      CG311      CG321       HGA2
   50     2    51	5 ;       HGA2      CG321       HGA2
    8     3     4	5 ;     CG2R61     CG2R61     CG2R61
    8     3     2	5 ;     CG2R61     CG2R61      CG321
    4     3     2	5 ;     CG2R61     CG2R61      CG321
    5     4     3	5 ;     CG2R61     CG2R61     CG2R61
    5     4    52	5 ;     CG2R61     CG2R61      HGR61
    3     4    52	5 ;     CG2R61     CG2R61      HGR61
    6     5     4	5 ;     CG2R61     CG2R61     CG2R61
    6     5    53	5 ;     CG2R61     CG2R61      HGR61
    4     5    53	5 ;     CG2R61     CG2R61      HGR61
    7     6     5	5 ;     CG2R61     CG2R61     CG2R61
    7     6    54	5 ;     CG2R61     CG2R61      HGR61
    5     6    54	5 ;     CG2R61     CG2R61      HGR61
    6     7     8	5 ;     CG2R61     CG2R61     CG2R61
    6     7    55	5 ;     CG2R61     CG2R61      HGR61
    8     7    55	5 ;     CG2R61     CG2R61      HGR61
    7     8     3	5 ;     CG2R61     CG2R61     CG2R61
    7     8    56	5 ;     CG2R61     CG2R61      HGR61
    3     8    56	5 ;     CG2R61     CG2R61      HGR61
   12     9     1	5 ;       HGP1      NG2S1      CG311
   12     9    10	5 ;       HGP1      NG2S1      CG2O1
    1     9    10	5 ;      CG311      NG2S1      CG2O1
    9    10    13	5 ;      NG2S1      CG2O1     CG2R61
    9    10    11	5 ;      NG2S1      CG2O1      OG2D1
   13    10    11	5 ;     CG2R61      CG2O1      OG2D1
   14    13    18	5 ;     CG2R61     CG2R61     CG2R61
   14    13    10	5 ;     CG2R61     CG2R61      CG2O1
   18    13    10	5 ;     CG2R61     CG2R61      CG2O1
   15    14    13	5 ;     CG2R61     CG2R61     CG2R61
   15    14    57	5 ;     CG2R61     CG2R61      HGR61
   13    14    57	5 ;     CG2R61     CG2R61      HGR61
   20    15    16	5 ;      NG301     CG2R61     CG2R61
   20    15    14	5 ;      NG301     CG2R61     CG2R61
   16    15    14	5 ;     CG2R61     CG2R61     CG2R61
   15    16    17	5 ;     CG2R61     CG2R61     CG2R61
   15    16    58	5 ;     CG2R61     CG2R61      HGR61
   17    16    58	5 ;     CG2R61     CG2R61      HGR61
   16    17    18	5 ;     CG2R61     CG2R61     CG2R61
   16    17    59	5 ;     CG2R61     CG2R61      HGR61
   18    17    59	5 ;     CG2R61     CG2R61      HGR61
   17    18    13	5 ;     CG2R61     CG2R61     CG2R61
   17    18    19	5 ;     CG2R61     CG2R61      CG331
   13    18    19	5 ;     CG2R61     CG2R61      CG331
   18    19    60	5 ;     CG2R61      CG331       HGA3
   18    19    61	5 ;     CG2R61      CG331       HGA3
   18    19    62	5 ;     CG2R61      CG331       HGA3
   60    19    61	5 ;       HGA3      CG331       HGA3
   60    19    62	5 ;       HGA3      CG331       HGA3
   61    19    62	5 ;       HGA3      CG331       HGA3
   25    20    21	5 ;     CG2R61      NG301      SG3O2
   25    20    15	5 ;     CG2R61      NG301     CG2R61
   21    20    15	5 ;      SG3O2      NG301     CG2R61
   24    21    23	5 ;      CG331      SG3O2      OG2P1
   24    21    20	5 ;      CG331      SG3O2      NG301
   24    21    22	5 ;      CG331      SG3O2      OG2P1
   23    21    20	5 ;      OG2P1      SG3O2      NG301
   23    21    22	5 ;      OG2P1      SG3O2      OG2P1
   20    21    22	5 ;      NG301      SG3O2      OG2P1
   21    24    63	5 ;      SG3O2      CG331       HGA3
   21    24    64	5 ;      SG3O2      CG331       HGA3
   21    24    65	5 ;      SG3O2      CG331       HGA3
   63    24    64	5 ;       HGA3      CG331       HGA3
   63    24    65	5 ;       HGA3      CG331       HGA3
   64    24    65	5 ;       HGA3      CG331       HGA3
   26    25    30	5 ;     CG2R61     CG2R61     CG2R61
   26    25    20	5 ;     CG2R61     CG2R61      NG301
   30    25    20	5 ;     CG2R61     CG2R61      NG301
   27    26    25	5 ;     CG2R61     CG2R61     CG2R61
   27    26    66	5 ;     CG2R61     CG2R61      HGR61
   25    26    66	5 ;     CG2R61     CG2R61      HGR61
   28    27    26	5 ;     CG2R61     CG2R61     CG2R61
   28    27    67	5 ;     CG2R61     CG2R61      HGR61
   26    27    67	5 ;     CG2R61     CG2R61      HGR61
   27    28    29	5 ;     CG2R61     CG2R61     CG2R61
   27    28    68	5 ;     CG2R61     CG2R61      HGR61
   29    28    68	5 ;     CG2R61     CG2R61      HGR61
   28    29    30	5 ;     CG2R61     CG2R61     CG2R61
   28    29    69	5 ;     CG2R61     CG2R61      HGR61
   30    29    69	5 ;     CG2R61     CG2R61      HGR61
   29    30    25	5 ;     CG2R61     CG2R61     CG2R61
   29    30    70	5 ;     CG2R61     CG2R61      HGR61
   25    30    70	5 ;     CG2R61     CG2R61      HGR61
   32    31     1	5 ;      CG324      CG311      CG311
   32    31    47	5 ;      CG324      CG311      OG311
   32    31    71	5 ;      CG324      CG311       HGA1
    1    31    47	5 ;      CG311      CG311      OG311
    1    31    71	5 ;      CG311      CG311       HGA1
   47    31    71	5 ;      OG311      CG311       HGA1
   33    32    31	5 ;      NG3P2      CG324      CG311
   33    32    72	5 ;      NG3P2      CG324       HGA2
   33    32    73	5 ;      NG3P2      CG324       HGA2
   31    32    72	5 ;      CG311      CG324       HGA2
   31    32    73	5 ;      CG311      CG324       HGA2
   72    32    73	5 ;       HGA2      CG324       HGA2
   34    33    36	5 ;       HGP2      NG3P2      CG324
   34    33    35	5 ;       HGP2      NG3P2       HGP2
   34    33    32	5 ;       HGP2      NG3P2      CG324
   36    33    35	5 ;      CG324      NG3P2       HGP2
   36    33    32	5 ;      CG324      NG3P2      CG324
   35    33    32	5 ;       HGP2      NG3P2      CG324
   37    36    33	5 ;     CG2R61      CG324      NG3P2
   37    36    74	5 ;     CG2R61      CG324       HGA2
   37    36    75	5 ;     CG2R61      CG324       HGA2
   33    36    74	5 ;      NG3P2      CG324       HGA2
   33    36    75	5 ;      NG3P2      CG324       HGA2
   74    36    75	5 ;       HGA2      CG324       HGA2
   42    37    38	5 ;     CG2R61     CG2R61     CG2R61
   42    37    36	5 ;     CG2R61     CG2R61      CG324
   38    37    36	5 ;     CG2R61     CG2R61      CG324
   39    38    37	5 ;     CG2R61     CG2R61     CG2R61
   39    38    76	5 ;     CG2R61     CG2R61      HGR61
   37    38    76	5 ;     CG2R61     CG2R61      HGR61
   40    39    43	5 ;     CG2R61     CG2R61      CG302
   40    39    38	5 ;     CG2R61     CG2R61     CG2R61
   43    39    38	5 ;      CG302     CG2R61     CG2R61
   41    40    39	5 ;     CG2R61     CG2R61     CG2R61
   41    40    77	5 ;     CG2R61     CG2R61      HGR61
   39    40    77	5 ;     CG2R61     CG2R61      HGR61
   40    41    42	5 ;     CG2R61     CG2R61     CG2R61
   40    41    78	5 ;     CG2R61     CG2R61      HGR61
   42    41    78	5 ;     CG2R61     CG2R61      HGR61
   41    42    37	5 ;     CG2R61     CG2R61     CG2R61
   41    42    79	5 ;     CG2R61     CG2R61      HGR61
   37    42    79	5 ;     CG2R61     CG2R61      HGR61
   44    43    39	5 ;       FGA3      CG302     CG2R61
   44    43    45	5 ;       FGA3      CG302       FGA3
   44    43    46	5 ;       FGA3      CG302       FGA3
   39    43    45	5 ;     CG2R61      CG302       FGA3
   39    43    46	5 ;     CG2R61      CG302       FGA3
   45    43    46	5 ;       FGA3      CG302       FGA3
   31    47    48	5 ;      CG311      OG311       HGP1

[ dihedrals ]
;	ai	  aj	ak	  al funct			  c0			c1			  c2			c3			  c4			c5
    9     1    31    32	 9 ;      NG2S1      CG311      CG311      CG324
    9     1    31    47	 9 ;      NG2S1      CG311      CG311      OG311
    9     1    31    71	 9 ;      NG2S1      CG311      CG311       HGA1
    2     1    31    32	 9 ;      CG321      CG311      CG311      CG324
    2     1    31    47	 9 ;      CG321      CG311      CG311      OG311
    2     1    31    71	 9 ;      CG321      CG311      CG311       HGA1
   49     1    31    32	 9 ;       HGA1      CG311      CG311      CG324
   49     1    31    47	 9 ;       HGA1      CG311      CG311      OG311
   49     1    31    71	 9 ;       HGA1      CG311      CG311       HGA1
   31     1     9    12	 9 ;      CG311      CG311      NG2S1       HGP1
   31     1     9    10	 9 ;      CG311      CG311      NG2S1      CG2O1
    2     1     9    12	 9 ;      CG321      CG311      NG2S1       HGP1
    2     1     9    10	 9 ;      CG321      CG311      NG2S1      CG2O1
   49     1     9    12	 9 ;       HGA1      CG311      NG2S1       HGP1
   49     1     9    10	 9 ;       HGA1      CG311      NG2S1      CG2O1
   31     1     2     3	 9 ;      CG311      CG311      CG321     CG2R61
   31     1     2    50	 9 ;      CG311      CG311      CG321       HGA2
   31     1     2    51	 9 ;      CG311      CG311      CG321       HGA2
    9     1     2     3	 9 ;      NG2S1      CG311      CG321     CG2R61
    9     1     2    50	 9 ;      NG2S1      CG311      CG321       HGA2
    9     1     2    51	 9 ;      NG2S1      CG311      CG321       HGA2
   49     1     2     3	 9 ;       HGA1      CG311      CG321     CG2R61
   49     1     2    50	 9 ;       HGA1      CG311      CG321       HGA2
   49     1     2    51	 9 ;       HGA1      CG311      CG321       HGA2
    1     2     3     8	 9 ;      CG311      CG321     CG2R61     CG2R61
    1     2     3     4	 9 ;      CG311      CG321     CG2R61     CG2R61
   50     2     3     8	 9 ;       HGA2      CG321     CG2R61     CG2R61
   50     2     3     4	 9 ;       HGA2      CG321     CG2R61     CG2R61
   51     2     3     8	 9 ;       HGA2      CG321     CG2R61     CG2R61
   51     2     3     4	 9 ;       HGA2      CG321     CG2R61     CG2R61
    4     3     8     7	 9 ;     CG2R61     CG2R61     CG2R61     CG2R61
    4     3     8    56	 9 ;     CG2R61     CG2R61     CG2R61      HGR61
    2     3     8     7	 9 ;      CG321     CG2R61     CG2R61     CG2R61
    2     3     8    56	 9 ;      CG321     CG2R61     CG2R61      HGR61
    8     3     4     5	 9 ;     CG2R61     CG2R61     CG2R61     CG2R61
    8     3     4    52	 9 ;     CG2R61     CG2R61     CG2R61      HGR61
    2     3     4     5	 9 ;      CG321     CG2R61     CG2R61     CG2R61
    2     3     4    52	 9 ;      CG321     CG2R61     CG2R61      HGR61
    3     4     5     6	 9 ;     CG2R61     CG2R61     CG2R61     CG2R61
    3     4     5    53	 9 ;     CG2R61     CG2R61     CG2R61      HGR61
   52     4     5     6	 9 ;      HGR61     CG2R61     CG2R61     CG2R61
   52     4     5    53	 9 ;      HGR61     CG2R61     CG2R61      HGR61
    4     5     6     7	 9 ;     CG2R61     CG2R61     CG2R61     CG2R61
    4     5     6    54	 9 ;     CG2R61     CG2R61     CG2R61      HGR61
   53     5     6     7	 9 ;      HGR61     CG2R61     CG2R61     CG2R61
   53     5     6    54	 9 ;      HGR61     CG2R61     CG2R61      HGR61
    5     6     7     8	 9 ;     CG2R61     CG2R61     CG2R61     CG2R61
    5     6     7    55	 9 ;     CG2R61     CG2R61     CG2R61      HGR61
   54     6     7     8	 9 ;      HGR61     CG2R61     CG2R61     CG2R61
   54     6     7    55	 9 ;      HGR61     CG2R61     CG2R61      HGR61
    6     7     8     3	 9 ;     CG2R61     CG2R61     CG2R61     CG2R61
    6     7     8    56	 9 ;     CG2R61     CG2R61     CG2R61      HGR61
   55     7     8     3	 9 ;      HGR61     CG2R61     CG2R61     CG2R61
   55     7     8    56	 9 ;      HGR61     CG2R61     CG2R61      HGR61
   12     9    10    13	 9 ;       HGP1      NG2S1      CG2O1     CG2R61
   12     9    10    11	 9 ;       HGP1      NG2S1      CG2O1      OG2D1
    1     9    10    13	 9 ;      CG311      NG2S1      CG2O1     CG2R61
    1     9    10    11	 9 ;      CG311      NG2S1      CG2O1      OG2D1
    9    10    13    14	 9 ;      NG2S1      CG2O1     CG2R61     CG2R61
    9    10    13    18	 9 ;      NG2S1      CG2O1     CG2R61     CG2R61
   11    10    13    14	 9 ;      OG2D1      CG2O1     CG2R61     CG2R61
   11    10    13    18	 9 ;      OG2D1      CG2O1     CG2R61     CG2R61
   18    13    14    15	 9 ;     CG2R61     CG2R61     CG2R61     CG2R61
   18    13    14    57	 9 ;     CG2R61     CG2R61     CG2R61      HGR61
   10    13    14    15	 9 ;      CG2O1     CG2R61     CG2R61     CG2R61
   10    13    14    57	 9 ;      CG2O1     CG2R61     CG2R61      HGR61
   14    13    18    17	 9 ;     CG2R61     CG2R61     CG2R61     CG2R61
   14    13    18    19	 9 ;     CG2R61     CG2R61     CG2R61      CG331
   10    13    18    17	 9 ;      CG2O1     CG2R61     CG2R61     CG2R61
   10    13    18    19	 9 ;      CG2O1     CG2R61     CG2R61      CG331
   13    14    15    20	 9 ;     CG2R61     CG2R61     CG2R61      NG301
   13    14    15    16	 9 ;     CG2R61     CG2R61     CG2R61     CG2R61
   57    14    15    20	 9 ;      HGR61     CG2R61     CG2R61      NG301
   57    14    15    16	 9 ;      HGR61     CG2R61     CG2R61     CG2R61
   16    15    20    25	 9 ;     CG2R61     CG2R61      NG301     CG2R61
   16    15    20    21	 9 ;     CG2R61     CG2R61      NG301      SG3O2
   14    15    20    25	 9 ;     CG2R61     CG2R61      NG301     CG2R61
   14    15    20    21	 9 ;     CG2R61     CG2R61      NG301      SG3O2
   20    15    16    17	 9 ;      NG301     CG2R61     CG2R61     CG2R61
   20    15    16    58	 9 ;      NG301     CG2R61     CG2R61      HGR61
   14    15    16    17	 9 ;     CG2R61     CG2R61     CG2R61     CG2R61
   14    15    16    58	 9 ;     CG2R61     CG2R61     CG2R61      HGR61
   15    16    17    18	 9 ;     CG2R61     CG2R61     CG2R61     CG2R61
   15    16    17    59	 9 ;     CG2R61     CG2R61     CG2R61      HGR61
   58    16    17    18	 9 ;      HGR61     CG2R61     CG2R61     CG2R61
   58    16    17    59	 9 ;      HGR61     CG2R61     CG2R61      HGR61
   16    17    18    13	 9 ;     CG2R61     CG2R61     CG2R61     CG2R61
   16    17    18    19	 9 ;     CG2R61     CG2R61     CG2R61      CG331
   59    17    18    13	 9 ;      HGR61     CG2R61     CG2R61     CG2R61
   59    17    18    19	 9 ;      HGR61     CG2R61     CG2R61      CG331
   17    18    19    60	 9 ;     CG2R61     CG2R61      CG331       HGA3
   17    18    19    61	 9 ;     CG2R61     CG2R61      CG331       HGA3
   17    18    19    62	 9 ;     CG2R61     CG2R61      CG331       HGA3
   13    18    19    60	 9 ;     CG2R61     CG2R61      CG331       HGA3
   13    18    19    61	 9 ;     CG2R61     CG2R61      CG331       HGA3
   13    18    19    62	 9 ;     CG2R61     CG2R61      CG331       HGA3
   21    20    25    26	 9 ;      SG3O2      NG301     CG2R61     CG2R61
   21    20    25    30	 9 ;      SG3O2      NG301     CG2R61     CG2R61
   15    20    25    26	 9 ;     CG2R61      NG301     CG2R61     CG2R61
   15    20    25    30	 9 ;     CG2R61      NG301     CG2R61     CG2R61
   25    20    21    24	 9 ;     CG2R61      NG301      SG3O2      CG331
   25    20    21    23	 9 ;     CG2R61      NG301      SG3O2      OG2P1
   25    20    21    22	 9 ;     CG2R61      NG301      SG3O2      OG2P1
   15    20    21    24	 9 ;     CG2R61      NG301      SG3O2      CG331
   15    20    21    23	 9 ;     CG2R61      NG301      SG3O2      OG2P1
   15    20    21    22	 9 ;     CG2R61      NG301      SG3O2      OG2P1
   23    21    24    63	 9 ;      OG2P1      SG3O2      CG331       HGA3
   23    21    24    64	 9 ;      OG2P1      SG3O2      CG331       HGA3
   23    21    24    65	 9 ;      OG2P1      SG3O2      CG331       HGA3
   20    21    24    63	 9 ;      NG301      SG3O2      CG331       HGA3
   20    21    24    64	 9 ;      NG301      SG3O2      CG331       HGA3
   20    21    24    65	 9 ;      NG301      SG3O2      CG331       HGA3
   22    21    24    63	 9 ;      OG2P1      SG3O2      CG331       HGA3
   22    21    24    64	 9 ;      OG2P1      SG3O2      CG331       HGA3
   22    21    24    65	 9 ;      OG2P1      SG3O2      CG331       HGA3
   30    25    26    27	 9 ;     CG2R61     CG2R61     CG2R61     CG2R61
   30    25    26    66	 9 ;     CG2R61     CG2R61     CG2R61      HGR61
   20    25    26    27	 9 ;      NG301     CG2R61     CG2R61     CG2R61
   20    25    26    66	 9 ;      NG301     CG2R61     CG2R61      HGR61
   26    25    30    29	 9 ;     CG2R61     CG2R61     CG2R61     CG2R61
   26    25    30    70	 9 ;     CG2R61     CG2R61     CG2R61      HGR61
   20    25    30    29	 9 ;      NG301     CG2R61     CG2R61     CG2R61
   20    25    30    70	 9 ;      NG301     CG2R61     CG2R61      HGR61
   25    26    27    28	 9 ;     CG2R61     CG2R61     CG2R61     CG2R61
   25    26    27    67	 9 ;     CG2R61     CG2R61     CG2R61      HGR61
   66    26    27    28	 9 ;      HGR61     CG2R61     CG2R61     CG2R61
   66    26    27    67	 9 ;      HGR61     CG2R61     CG2R61      HGR61
   26    27    28    29	 9 ;     CG2R61     CG2R61     CG2R61     CG2R61
   26    27    28    68	 9 ;     CG2R61     CG2R61     CG2R61      HGR61
   67    27    28    29	 9 ;      HGR61     CG2R61     CG2R61     CG2R61
   67    27    28    68	 9 ;      HGR61     CG2R61     CG2R61      HGR61
   27    28    29    30	 9 ;     CG2R61     CG2R61     CG2R61     CG2R61
   27    28    29    69	 9 ;     CG2R61     CG2R61     CG2R61      HGR61
   68    28    29    30	 9 ;      HGR61     CG2R61     CG2R61     CG2R61
   68    28    29    69	 9 ;      HGR61     CG2R61     CG2R61      HGR61
   28    29    30    25	 9 ;     CG2R61     CG2R61     CG2R61     CG2R61
   28    29    30    70	 9 ;     CG2R61     CG2R61     CG2R61      HGR61
   69    29    30    25	 9 ;      HGR61     CG2R61     CG2R61     CG2R61
   69    29    30    70	 9 ;      HGR61     CG2R61     CG2R61      HGR61
    1    31    32    33	 9 ;      CG311      CG311      CG324      NG3P2
    1    31    32    72	 9 ;      CG311      CG311      CG324       HGA2
    1    31    32    73	 9 ;      CG311      CG311      CG324       HGA2
   47    31    32    33	 9 ;      OG311      CG311      CG324      NG3P2
   47    31    32    72	 9 ;      OG311      CG311      CG324       HGA2
   47    31    32    73	 9 ;      OG311      CG311      CG324       HGA2
   71    31    32    33	 9 ;       HGA1      CG311      CG324      NG3P2
   71    31    32    72	 9 ;       HGA1      CG311      CG324       HGA2
   71    31    32    73	 9 ;       HGA1      CG311      CG324       HGA2
   32    31    47    48	 9 ;      CG324      CG311      OG311       HGP1
    1    31    47    48	 9 ;      CG311      CG311      OG311       HGP1
   71    31    47    48	 9 ;       HGA1      CG311      OG311       HGP1
   31    32    33    34	 9 ;      CG311      CG324      NG3P2       HGP2
   31    32    33    36	 9 ;      CG311      CG324      NG3P2      CG324
   31    32    33    35	 9 ;      CG311      CG324      NG3P2       HGP2
   72    32    33    34	 9 ;       HGA2      CG324      NG3P2       HGP2
   72    32    33    36	 9 ;       HGA2      CG324      NG3P2      CG324
   72    32    33    35	 9 ;       HGA2      CG324      NG3P2       HGP2
   73    32    33    34	 9 ;       HGA2      CG324      NG3P2       HGP2
   73    32    33    36	 9 ;       HGA2      CG324      NG3P2      CG324
   73    32    33    35	 9 ;       HGA2      CG324      NG3P2       HGP2
   34    33    36    37	 9 ;       HGP2      NG3P2      CG324     CG2R61
   34    33    36    74	 9 ;       HGP2      NG3P2      CG324       HGA2
   34    33    36    75	 9 ;       HGP2      NG3P2      CG324       HGA2
   35    33    36    37	 9 ;       HGP2      NG3P2      CG324     CG2R61
   35    33    36    74	 9 ;       HGP2      NG3P2      CG324       HGA2
   35    33    36    75	 9 ;       HGP2      NG3P2      CG324       HGA2
   32    33    36    37	 9 ;      CG324      NG3P2      CG324     CG2R61
   32    33    36    74	 9 ;      CG324      NG3P2      CG324       HGA2
   32    33    36    75	 9 ;      CG324      NG3P2      CG324       HGA2
   33    36    37    42	 9 ;      NG3P2      CG324     CG2R61     CG2R61
   33    36    37    38	 9 ;      NG3P2      CG324     CG2R61     CG2R61
   74    36    37    42	 9 ;       HGA2      CG324     CG2R61     CG2R61
   74    36    37    38	 9 ;       HGA2      CG324     CG2R61     CG2R61
   75    36    37    42	 9 ;       HGA2      CG324     CG2R61     CG2R61
   75    36    37    38	 9 ;       HGA2      CG324     CG2R61     CG2R61
   38    37    42    41	 9 ;     CG2R61     CG2R61     CG2R61     CG2R61
   38    37    42    79	 9 ;     CG2R61     CG2R61     CG2R61      HGR61
   36    37    42    41	 9 ;      CG324     CG2R61     CG2R61     CG2R61
   36    37    42    79	 9 ;      CG324     CG2R61     CG2R61      HGR61
   42    37    38    39	 9 ;     CG2R61     CG2R61     CG2R61     CG2R61
   42    37    38    76	 9 ;     CG2R61     CG2R61     CG2R61      HGR61
   36    37    38    39	 9 ;      CG324     CG2R61     CG2R61     CG2R61
   36    37    38    76	 9 ;      CG324     CG2R61     CG2R61      HGR61
   37    38    39    40	 9 ;     CG2R61     CG2R61     CG2R61     CG2R61
   37    38    39    43	 9 ;     CG2R61     CG2R61     CG2R61      CG302
   76    38    39    40	 9 ;      HGR61     CG2R61     CG2R61     CG2R61
   76    38    39    43	 9 ;      HGR61     CG2R61     CG2R61      CG302
   43    39    40    41	 9 ;      CG302     CG2R61     CG2R61     CG2R61
   43    39    40    77	 9 ;      CG302     CG2R61     CG2R61      HGR61
   38    39    40    41	 9 ;     CG2R61     CG2R61     CG2R61     CG2R61
   38    39    40    77	 9 ;     CG2R61     CG2R61     CG2R61      HGR61
   40    39    43    44	 9 ;     CG2R61     CG2R61      CG302       FGA3
   40    39    43    45	 9 ;     CG2R61     CG2R61      CG302       FGA3
   40    39    43    46	 9 ;     CG2R61     CG2R61      CG302       FGA3
   38    39    43    44	 9 ;     CG2R61     CG2R61      CG302       FGA3
   38    39    43    45	 9 ;     CG2R61     CG2R61      CG302       FGA3
   38    39    43    46	 9 ;     CG2R61     CG2R61      CG302       FGA3
   39    40    41    42	 9 ;     CG2R61     CG2R61     CG2R61     CG2R61
   39    40    41    78	 9 ;     CG2R61     CG2R61     CG2R61      HGR61
   77    40    41    42	 9 ;      HGR61     CG2R61     CG2R61     CG2R61
   77    40    41    78	 9 ;      HGR61     CG2R61     CG2R61      HGR61
   40    41    42    37	 9 ;     CG2R61     CG2R61     CG2R61     CG2R61
   40    41    42    79	 9 ;     CG2R61     CG2R61     CG2R61      HGR61
   78    41    42    37	 9 ;      HGR61     CG2R61     CG2R61     CG2R61
   78    41    42    79	 9 ;      HGR61     CG2R61     CG2R61      HGR61

[ dihedrals ]
;	ai	  aj	ak	  al funct			  c0			c1			  c2			c3
   10    13     9    11	 2

