GRowing Old MAkes el Chrono Sweat
   45
    1LIG     C1    1   2.001   3.881  -1.666
    1LIG     O5    2   1.818   3.795  -1.853
    1LIG     C3    3   1.844   3.986  -1.989
    1LIG     C4    4   1.915   4.105  -2.013
    1LIG     C5    5   1.751   3.939  -2.082
    1LIG     C6    6   1.893   4.175  -2.132
    1LIG     C7    7   1.730   4.011  -2.199
    1LIG     C8    8   1.799   4.128  -2.225
    1LIG     C9    9   1.956   3.967  -1.760
    1LIG    C10   10   1.981   4.114  -1.772
    1LIG    C11   11   1.869   3.906  -1.866
    1LIG    C12   12   2.018   4.154  -1.914
    1LIG     N1   13   2.015   3.943  -1.437
    1LIG     O4   14   2.209   3.920  -1.556
    1LIG     C2   15   2.087   3.916  -1.550
    1LIG     H2   16   1.916   3.962  -1.446
    1LIG    C13   17   2.081   3.998  -1.317
    1LIG    C15   18   2.025   3.934  -1.189
    1LIG    C16   19   2.021   4.035  -1.074
    1LIG    C17   20   1.884   3.878  -1.210
    1LIG     O2   21   1.945   4.199  -1.347
    1LIG    C14   22   2.053   4.149  -1.320
    1LIG     O3   23   2.165   4.219  -1.284
    1LIG    C18   24   2.279   4.193  -1.367
    1LIG     O1   25   1.640   3.969  -2.293
    1LIG     H1   26   1.673   3.887  -2.334
    1LIG     H3   27   1.972   3.782  -1.675
    1LIG     H4   28   1.699   3.851  -2.065
    1LIG     H5   29   1.945   4.262  -2.151
    1LIG     H6   30   1.783   4.181  -2.312
    1LIG     H7   31   1.892   4.167  -1.743
    1LIG     H8   32   2.062   4.140  -1.707
    1LIG     H9   33   2.024   4.260  -1.921
    1LIG    H10   34   2.112   4.109  -1.939
    1LIG    H11   35   2.186   3.978  -1.318
    1LIG    H12   36   2.091   3.854  -1.164
    1LIG    H13   37   1.955   4.116  -1.099
    1LIG    H14   38   2.120   4.074  -1.057
    1LIG    H15   39   1.986   3.987  -0.985
    1LIG    H16   40   1.817   3.957  -1.235
    1LIG    H17   41   1.851   3.830  -1.120
    1LIG    H18   42   1.885   3.806  -1.289
    1LIG    H19   43   2.362   4.251  -1.332
    1LIG    H20   44   2.256   4.219  -1.468
    1LIG    H21   45   2.303   4.089  -1.361
   0.00000   0.00000   0.00000
