; Created by cgenff_charmm2gmx.py

[ moleculetype ]
; Name			   nrexcl
LIG				 3

[ atoms ]
;	 nr		  type	resnr residue  atom   cgnr	   charge		mass  typeB    chargeB		massB
; residue	 1 LIG rtp LIG q	qsum
     1     OG3C51      1    LIG     O1      1     -0.243     15.999   ;
     2     CG3C52      1    LIG     C1      2     -0.015     12.011   ;
     3     CG3C50      1    LIG     C2      3      1.266     12.011   ;
     4      NG3P2      1    LIG     N1      4     -1.541     14.007   ;
     5       HGP2      1    LIG    HN3      5      0.500      1.008   ;
     6     CG3C53      1    LIG     C3      6      1.711     12.011   ;
     7     CG2R61      1    LIG     C4      7     -0.288     12.011   ;
     8     CG2R61      1    LIG     C5      8     -0.127     12.011   ;
     9     CG2R61      1    LIG     C6      9     -0.110     12.011   ;
    10     CG2R61      1    LIG     C7     10      0.211     12.011   ;
    11     CG2R61      1    LIG     C8     11     -0.110     12.011   ;
    12     CG2R61      1    LIG     C9     12     -0.127     12.011   ;
    13      OG301      1    LIG     O2     13     -0.383     15.999   ;
    14      CG331      1    LIG    C10     14     -0.094     12.011   ;
    15     CG2R61      1    LIG    C11     15     -0.285     12.011   ;
    16     CG2R61      1    LIG    C12     16     -0.134     12.011   ;
    17     CG2R61      1    LIG    C13     17      0.025     12.011   ;
    18     CG2R61      1    LIG    C14     18     -0.120     12.011   ;
    19     CG2R61      1    LIG    C15     19     -0.102     12.011   ;
    20     CG2R61      1    LIG    C16     20     -0.130     12.011   ;
    21     CG2DC1      1    LIG    C17     21     -0.086     12.011   ;
    22      CG321      1    LIG    C18     22      0.013     12.011   ;
    23      NG311      1    LIG     N2     23     -0.656     14.007   ;
    24      CG321      1    LIG    C19     24      0.131     12.011   ;
    25     HGPAM1      1    LIG    HN4     25      0.367      1.008   ;
    26      NG311      1    LIG     N3     26     -0.598     14.007   ;
    27     CG2D1O      1    LIG    C20     27     -0.097     12.011   ;
    28     HGPAM1      1    LIG    HN5     28      0.406      1.008   ;
    29      NG3P3      1    LIG     N4     29     -0.781     14.007   ;
    30       HGP2      1    LIG     H1     30      0.307      1.008   ;
    31       HGP2      1    LIG     H2     31      0.307      1.008   ;
    32       HGA2      1    LIG    HC2     32      0.090      1.008   ;
    33       HGA2      1    LIG    HC3     33      0.090      1.008   ;
    34       HGP2      1    LIG    HN2     34      0.500      1.008   ;
    35       HGA1      1    LIG     HC     35      0.090      1.008   ;
    36      HGR61      1    LIG    HC1     36      0.116      1.008   ;
    37      HGR61      1    LIG    HC4     37      0.116      1.008   ;
    38      HGR61      1    LIG    HC5     38      0.116      1.008   ;
    39      HGR61      1    LIG    HC6     39      0.116      1.008   ;
    40       HGA3      1    LIG    HC7     40      0.090      1.008   ;
    41       HGA3      1    LIG    HC8     41      0.090      1.008   ;
    42       HGA3      1    LIG    HC9     42      0.090      1.008   ;
    43      HGR61      1    LIG   HC10     43      0.116      1.008   ;
    44      HGR61      1    LIG   HC11     44      0.116      1.008   ;
    45      HGR61      1    LIG   HC12     45      0.116      1.008   ;
    46      HGR61      1    LIG   HC13     46      0.116      1.008   ;
    47       HGA2      1    LIG   HC14     47      0.090      1.008   ;
    48       HGA2      1    LIG   HC15     48      0.090      1.008   ;
    49       HGA4      1    LIG   HC16     49      0.148      1.008   ;
    50       HGP2      1    LIG    HN1     50      0.307      1.008   ;
    51       HGA2      1    LIG    H25     51      0.090      1.008   ;
    52       HGA2      1    LIG    H26     52      0.090      1.008   ;

[ bonds ]
;	ai	  aj funct			  c0			c1			  c2			c3
    1     6	 1 ;      OG3C51     CG3C53
    1     2	 1 ;      OG3C51     CG3C52
    2     3	 1 ;      CG3C52     CG3C50
    2    32	 1 ;      CG3C52       HGA2
    2    33	 1 ;      CG3C52       HGA2
    3    15	 1 ;      CG3C50     CG2R61
    3     4	 1 ;      CG3C50      NG3P2
    3     7	 1 ;      CG3C50     CG2R61
    4     6	 1 ;       NG3P2     CG3C53
    4     5	 1 ;       NG3P2       HGP2
    4    34	 1 ;       NG3P2       HGP2
    6    29	 1 ;      CG3C53      NG3P3
    6    35	 1 ;      CG3C53       HGA1
    7    12	 1 ;      CG2R61     CG2R61
    7     8	 1 ;      CG2R61     CG2R61
    8     9	 1 ;      CG2R61     CG2R61
    8    36	 1 ;      CG2R61      HGR61
    9    10	 1 ;      CG2R61     CG2R61
    9    37	 1 ;      CG2R61      HGR61
   10    11	 1 ;      CG2R61     CG2R61
   10    13	 1 ;      CG2R61      OG301
   11    12	 1 ;      CG2R61     CG2R61
   11    38	 1 ;      CG2R61      HGR61
   12    39	 1 ;      CG2R61      HGR61
   13    14	 1 ;       OG301      CG331
   14    40	 1 ;       CG331       HGA3
   14    41	 1 ;       CG331       HGA3
   14    42	 1 ;       CG331       HGA3
   15    20	 1 ;      CG2R61     CG2R61
   15    16	 1 ;      CG2R61     CG2R61
   16    17	 1 ;      CG2R61     CG2R61
   16    43	 1 ;      CG2R61      HGR61
   17    18	 1 ;      CG2R61     CG2R61
   17    21	 1 ;      CG2R61     CG2DC1
   18    19	 1 ;      CG2R61     CG2R61
   18    44	 1 ;      CG2R61      HGR61
   19    20	 1 ;      CG2R61     CG2R61
   19    45	 1 ;      CG2R61      HGR61
   20    46	 1 ;      CG2R61      HGR61
   21    22	 1 ;      CG2DC1      CG321
   21    27	 1 ;      CG2DC1     CG2D1O
   22    23	 1 ;       CG321      NG311
   22    47	 1 ;       CG321       HGA2
   22    51	 1 ;       CG321       HGA2
   23    25	 1 ;       NG311     HGPAM1
   23    24	 1 ;       NG311      CG321
   24    26	 1 ;       CG321      NG311
   24    48	 1 ;       CG321       HGA2
   24    52	 1 ;       CG321       HGA2
   26    27	 1 ;       NG311     CG2D1O
   26    28	 1 ;       NG311     HGPAM1
   27    49	 1 ;      CG2D1O       HGA4
   29    31	 1 ;       NG3P3       HGP2
   29    30	 1 ;       NG3P3       HGP2
   29    50	 1 ;       NG3P3       HGP2

[ pairs ]
;	ai	  aj funct			  c0			c1			  c2			c3
    1    15	 1
    1     7	 1
    1     5	 1
    1    34	 1
    1    31	 1
    1    30	 1
    1    50	 1
    2    29	 1
    2    35	 1
    2    20	 1
    2    16	 1
    2     5	 1
    2    34	 1
    2    12	 1
    2     8	 1
    3    29	 1
    3    35	 1
    3    11	 1
    3    39	 1
    3     9	 1
    3    36	 1
    3    19	 1
    3    46	 1
    3    17	 1
    3    43	 1
    4    32	 1
    4    33	 1
    4    20	 1
    4    16	 1
    4    12	 1
    4     8	 1
    4    31	 1
    4    30	 1
    4    50	 1
    5    15	 1
    5     7	 1
    5    29	 1
    5    35	 1
    6    32	 1
    6    33	 1
    6    15	 1
    6     7	 1
    7    32	 1
    7    33	 1
    7    20	 1
    7    16	 1
    7    34	 1
    7    10	 1
    7    37	 1
    7    38	 1
    8    15	 1
    8    11	 1
    8    39	 1
    8    13	 1
    9    12	 1
    9    38	 1
    9    14	 1
   10    36	 1
   10    39	 1
   10    40	 1
   10    41	 1
   10    42	 1
   11    37	 1
   11    14	 1
   12    15	 1
   12    36	 1
   12    13	 1
   13    37	 1
   13    38	 1
   15    32	 1
   15    33	 1
   15    34	 1
   15    18	 1
   15    21	 1
   15    45	 1
   16    19	 1
   16    46	 1
   16    44	 1
   16    22	 1
   16    27	 1
   17    20	 1
   17    45	 1
   17    23	 1
   17    47	 1
   17    51	 1
   17    26	 1
   17    49	 1
   18    43	 1
   18    22	 1
   18    27	 1
   18    46	 1
   19    21	 1
   20    43	 1
   20    44	 1
   21    43	 1
   21    44	 1
   21    25	 1
   21    24	 1
   21    28	 1
   22    26	 1
   22    49	 1
   22    48	 1
   22    52	 1
   23    27	 1
   23    28	 1
   24    47	 1
   24    51	 1
   24    49	 1
   25    47	 1
   25    51	 1
   25    26	 1
   25    48	 1
   25    52	 1
   27    47	 1
   27    51	 1
   27    48	 1
   27    52	 1
   28    48	 1
   28    52	 1
   28    49	 1
   29    34	 1
   30    35	 1
   31    35	 1
   34    35	 1
   35    50	 1
   36    37	 1
   38    39	 1
   44    45	 1
   45    46	 1

[ angles ]
;	ai	  aj	ak funct			c0			  c1			c2			  c3
    6     1     2	5 ;     CG3C53     OG3C51     CG3C52
    1     2     3	5 ;     OG3C51     CG3C52     CG3C50
    1     2    32	5 ;     OG3C51     CG3C52       HGA2
    1     2    33	5 ;     OG3C51     CG3C52       HGA2
    3     2    32	5 ;     CG3C50     CG3C52       HGA2
    3     2    33	5 ;     CG3C50     CG3C52       HGA2
   32     2    33	5 ;       HGA2     CG3C52       HGA2
    2     3    15	5 ;     CG3C52     CG3C50     CG2R61
    2     3     4	5 ;     CG3C52     CG3C50      NG3P2
    2     3     7	5 ;     CG3C52     CG3C50     CG2R61
   15     3     4	5 ;     CG2R61     CG3C50      NG3P2
   15     3     7	5 ;     CG2R61     CG3C50     CG2R61
    4     3     7	5 ;      NG3P2     CG3C50     CG2R61
    6     4     5	5 ;     CG3C53      NG3P2       HGP2
    6     4     3	5 ;     CG3C53      NG3P2     CG3C50
    6     4    34	5 ;     CG3C53      NG3P2       HGP2
    5     4     3	5 ;       HGP2      NG3P2     CG3C50
    5     4    34	5 ;       HGP2      NG3P2       HGP2
    3     4    34	5 ;     CG3C50      NG3P2       HGP2
   29     6     1	5 ;      NG3P3     CG3C53     OG3C51
   29     6     4	5 ;      NG3P3     CG3C53      NG3P2
   29     6    35	5 ;      NG3P3     CG3C53       HGA1
    1     6     4	5 ;     OG3C51     CG3C53      NG3P2
    1     6    35	5 ;     OG3C51     CG3C53       HGA1
    4     6    35	5 ;      NG3P2     CG3C53       HGA1
    3     7    12	5 ;     CG3C50     CG2R61     CG2R61
    3     7     8	5 ;     CG3C50     CG2R61     CG2R61
   12     7     8	5 ;     CG2R61     CG2R61     CG2R61
    7     8     9	5 ;     CG2R61     CG2R61     CG2R61
    7     8    36	5 ;     CG2R61     CG2R61      HGR61
    9     8    36	5 ;     CG2R61     CG2R61      HGR61
    8     9    10	5 ;     CG2R61     CG2R61     CG2R61
    8     9    37	5 ;     CG2R61     CG2R61      HGR61
   10     9    37	5 ;     CG2R61     CG2R61      HGR61
   11    10     9	5 ;     CG2R61     CG2R61     CG2R61
   11    10    13	5 ;     CG2R61     CG2R61      OG301
    9    10    13	5 ;     CG2R61     CG2R61      OG301
   12    11    10	5 ;     CG2R61     CG2R61     CG2R61
   12    11    38	5 ;     CG2R61     CG2R61      HGR61
   10    11    38	5 ;     CG2R61     CG2R61      HGR61
    7    12    11	5 ;     CG2R61     CG2R61     CG2R61
    7    12    39	5 ;     CG2R61     CG2R61      HGR61
   11    12    39	5 ;     CG2R61     CG2R61      HGR61
   10    13    14	5 ;     CG2R61      OG301      CG331
   13    14    40	5 ;      OG301      CG331       HGA3
   13    14    41	5 ;      OG301      CG331       HGA3
   13    14    42	5 ;      OG301      CG331       HGA3
   40    14    41	5 ;       HGA3      CG331       HGA3
   40    14    42	5 ;       HGA3      CG331       HGA3
   41    14    42	5 ;       HGA3      CG331       HGA3
   20    15    16	5 ;     CG2R61     CG2R61     CG2R61
   20    15     3	5 ;     CG2R61     CG2R61     CG3C50
   16    15     3	5 ;     CG2R61     CG2R61     CG3C50
   17    16    15	5 ;     CG2R61     CG2R61     CG2R61
   17    16    43	5 ;     CG2R61     CG2R61      HGR61
   15    16    43	5 ;     CG2R61     CG2R61      HGR61
   18    17    21	5 ;     CG2R61     CG2R61     CG2DC1
   18    17    16	5 ;     CG2R61     CG2R61     CG2R61
   21    17    16	5 ;     CG2DC1     CG2R61     CG2R61
   19    18    17	5 ;     CG2R61     CG2R61     CG2R61
   19    18    44	5 ;     CG2R61     CG2R61      HGR61
   17    18    44	5 ;     CG2R61     CG2R61      HGR61
   18    19    20	5 ;     CG2R61     CG2R61     CG2R61
   18    19    45	5 ;     CG2R61     CG2R61      HGR61
   20    19    45	5 ;     CG2R61     CG2R61      HGR61
   19    20    15	5 ;     CG2R61     CG2R61     CG2R61
   19    20    46	5 ;     CG2R61     CG2R61      HGR61
   15    20    46	5 ;     CG2R61     CG2R61      HGR61
   22    21    17	5 ;      CG321     CG2DC1     CG2R61
   22    21    27	5 ;      CG321     CG2DC1     CG2D1O
   17    21    27	5 ;     CG2R61     CG2DC1     CG2D1O
   23    22    21	5 ;      NG311      CG321     CG2DC1
   23    22    47	5 ;      NG311      CG321       HGA2
   23    22    51	5 ;      NG311      CG321       HGA2
   21    22    47	5 ;     CG2DC1      CG321       HGA2
   21    22    51	5 ;     CG2DC1      CG321       HGA2
   47    22    51	5 ;       HGA2      CG321       HGA2
   25    23    22	5 ;     HGPAM1      NG311      CG321
   25    23    24	5 ;     HGPAM1      NG311      CG321
   22    23    24	5 ;      CG321      NG311      CG321
   23    24    26	5 ;      NG311      CG321      NG311
   23    24    48	5 ;      NG311      CG321       HGA2
   23    24    52	5 ;      NG311      CG321       HGA2
   26    24    48	5 ;      NG311      CG321       HGA2
   26    24    52	5 ;      NG311      CG321       HGA2
   48    24    52	5 ;       HGA2      CG321       HGA2
   24    26    27	5 ;      CG321      NG311     CG2D1O
   24    26    28	5 ;      CG321      NG311     HGPAM1
   27    26    28	5 ;     CG2D1O      NG311     HGPAM1
   21    27    26	5 ;     CG2DC1     CG2D1O      NG311
   21    27    49	5 ;     CG2DC1     CG2D1O       HGA4
   26    27    49	5 ;      NG311     CG2D1O       HGA4
   31    29     6	5 ;       HGP2      NG3P3     CG3C53
   31    29    30	5 ;       HGP2      NG3P3       HGP2
   31    29    50	5 ;       HGP2      NG3P3       HGP2
    6    29    30	5 ;     CG3C53      NG3P3       HGP2
    6    29    50	5 ;     CG3C53      NG3P3       HGP2
   30    29    50	5 ;       HGP2      NG3P3       HGP2

[ dihedrals ]
;	ai	  aj	ak	  al funct			  c0			c1			  c2			c3			  c4			c5
    2     1     6    29	 9 ;     CG3C52     OG3C51     CG3C53      NG3P3
    2     1     6     4	 9 ;     CG3C52     OG3C51     CG3C53      NG3P2
    2     1     6    35	 9 ;     CG3C52     OG3C51     CG3C53       HGA1
    6     1     2     3	 9 ;     CG3C53     OG3C51     CG3C52     CG3C50
    6     1     2    32	 9 ;     CG3C53     OG3C51     CG3C52       HGA2
    6     1     2    33	 9 ;     CG3C53     OG3C51     CG3C52       HGA2
    1     2     3    15	 9 ;     OG3C51     CG3C52     CG3C50     CG2R61
    1     2     3     4	 9 ;     OG3C51     CG3C52     CG3C50      NG3P2
    1     2     3     7	 9 ;     OG3C51     CG3C52     CG3C50     CG2R61
   32     2     3    15	 9 ;       HGA2     CG3C52     CG3C50     CG2R61
   32     2     3     4	 9 ;       HGA2     CG3C52     CG3C50      NG3P2
   32     2     3     7	 9 ;       HGA2     CG3C52     CG3C50     CG2R61
   33     2     3    15	 9 ;       HGA2     CG3C52     CG3C50     CG2R61
   33     2     3     4	 9 ;       HGA2     CG3C52     CG3C50      NG3P2
   33     2     3     7	 9 ;       HGA2     CG3C52     CG3C50     CG2R61
    2     3    15    20	 9 ;     CG3C52     CG3C50     CG2R61     CG2R61
    2     3    15    16	 9 ;     CG3C52     CG3C50     CG2R61     CG2R61
    4     3    15    20	 9 ;      NG3P2     CG3C50     CG2R61     CG2R61
    4     3    15    16	 9 ;      NG3P2     CG3C50     CG2R61     CG2R61
    7     3    15    20	 9 ;     CG2R61     CG3C50     CG2R61     CG2R61
    7     3    15    16	 9 ;     CG2R61     CG3C50     CG2R61     CG2R61
    2     3     4     6	 9 ;     CG3C52     CG3C50      NG3P2     CG3C53
    2     3     4     5	 9 ;     CG3C52     CG3C50      NG3P2       HGP2
    2     3     4    34	 9 ;     CG3C52     CG3C50      NG3P2       HGP2
   15     3     4     6	 9 ;     CG2R61     CG3C50      NG3P2     CG3C53
   15     3     4     5	 9 ;     CG2R61     CG3C50      NG3P2       HGP2
   15     3     4    34	 9 ;     CG2R61     CG3C50      NG3P2       HGP2
    7     3     4     6	 9 ;     CG2R61     CG3C50      NG3P2     CG3C53
    7     3     4     5	 9 ;     CG2R61     CG3C50      NG3P2       HGP2
    7     3     4    34	 9 ;     CG2R61     CG3C50      NG3P2       HGP2
    2     3     7    12	 9 ;     CG3C52     CG3C50     CG2R61     CG2R61
    2     3     7     8	 9 ;     CG3C52     CG3C50     CG2R61     CG2R61
   15     3     7    12	 9 ;     CG2R61     CG3C50     CG2R61     CG2R61
   15     3     7     8	 9 ;     CG2R61     CG3C50     CG2R61     CG2R61
    4     3     7    12	 9 ;      NG3P2     CG3C50     CG2R61     CG2R61
    4     3     7     8	 9 ;      NG3P2     CG3C50     CG2R61     CG2R61
    5     4     6    29	 9 ;       HGP2      NG3P2     CG3C53      NG3P3
    5     4     6     1	 9 ;       HGP2      NG3P2     CG3C53     OG3C51
    5     4     6    35	 9 ;       HGP2      NG3P2     CG3C53       HGA1
    3     4     6    29	 9 ;     CG3C50      NG3P2     CG3C53      NG3P3
    3     4     6     1	 9 ;     CG3C50      NG3P2     CG3C53     OG3C51
    3     4     6    35	 9 ;     CG3C50      NG3P2     CG3C53       HGA1
   34     4     6    29	 9 ;       HGP2      NG3P2     CG3C53      NG3P3
   34     4     6     1	 9 ;       HGP2      NG3P2     CG3C53     OG3C51
   34     4     6    35	 9 ;       HGP2      NG3P2     CG3C53       HGA1
    1     6    29    31	 9 ;     OG3C51     CG3C53      NG3P3       HGP2
    1     6    29    30	 9 ;     OG3C51     CG3C53      NG3P3       HGP2
    1     6    29    50	 9 ;     OG3C51     CG3C53      NG3P3       HGP2
    4     6    29    31	 9 ;      NG3P2     CG3C53      NG3P3       HGP2
    4     6    29    30	 9 ;      NG3P2     CG3C53      NG3P3       HGP2
    4     6    29    50	 9 ;      NG3P2     CG3C53      NG3P3       HGP2
   35     6    29    31	 9 ;       HGA1     CG3C53      NG3P3       HGP2
   35     6    29    30	 9 ;       HGA1     CG3C53      NG3P3       HGP2
   35     6    29    50	 9 ;       HGA1     CG3C53      NG3P3       HGP2
    3     7    12    11	 9 ;     CG3C50     CG2R61     CG2R61     CG2R61
    3     7    12    39	 9 ;     CG3C50     CG2R61     CG2R61      HGR61
    8     7    12    11	 9 ;     CG2R61     CG2R61     CG2R61     CG2R61
    8     7    12    39	 9 ;     CG2R61     CG2R61     CG2R61      HGR61
    3     7     8     9	 9 ;     CG3C50     CG2R61     CG2R61     CG2R61
    3     7     8    36	 9 ;     CG3C50     CG2R61     CG2R61      HGR61
   12     7     8     9	 9 ;     CG2R61     CG2R61     CG2R61     CG2R61
   12     7     8    36	 9 ;     CG2R61     CG2R61     CG2R61      HGR61
    7     8     9    10	 9 ;     CG2R61     CG2R61     CG2R61     CG2R61
    7     8     9    37	 9 ;     CG2R61     CG2R61     CG2R61      HGR61
   36     8     9    10	 9 ;      HGR61     CG2R61     CG2R61     CG2R61
   36     8     9    37	 9 ;      HGR61     CG2R61     CG2R61      HGR61
    8     9    10    11	 9 ;     CG2R61     CG2R61     CG2R61     CG2R61
    8     9    10    13	 9 ;     CG2R61     CG2R61     CG2R61      OG301
   37     9    10    11	 9 ;      HGR61     CG2R61     CG2R61     CG2R61
   37     9    10    13	 9 ;      HGR61     CG2R61     CG2R61      OG301
    9    10    11    12	 9 ;     CG2R61     CG2R61     CG2R61     CG2R61
    9    10    11    38	 9 ;     CG2R61     CG2R61     CG2R61      HGR61
   13    10    11    12	 9 ;      OG301     CG2R61     CG2R61     CG2R61
   13    10    11    38	 9 ;      OG301     CG2R61     CG2R61      HGR61
   11    10    13    14	 9 ;     CG2R61     CG2R61      OG301      CG331
    9    10    13    14	 9 ;     CG2R61     CG2R61      OG301      CG331
   10    11    12     7	 9 ;     CG2R61     CG2R61     CG2R61     CG2R61
   10    11    12    39	 9 ;     CG2R61     CG2R61     CG2R61      HGR61
   38    11    12     7	 9 ;      HGR61     CG2R61     CG2R61     CG2R61
   38    11    12    39	 9 ;      HGR61     CG2R61     CG2R61      HGR61
   10    13    14    40	 9 ;     CG2R61      OG301      CG331       HGA3
   10    13    14    41	 9 ;     CG2R61      OG301      CG331       HGA3
   10    13    14    42	 9 ;     CG2R61      OG301      CG331       HGA3
   16    15    20    19	 9 ;     CG2R61     CG2R61     CG2R61     CG2R61
   16    15    20    46	 9 ;     CG2R61     CG2R61     CG2R61      HGR61
    3    15    20    19	 9 ;     CG3C50     CG2R61     CG2R61     CG2R61
    3    15    20    46	 9 ;     CG3C50     CG2R61     CG2R61      HGR61
   20    15    16    17	 9 ;     CG2R61     CG2R61     CG2R61     CG2R61
   20    15    16    43	 9 ;     CG2R61     CG2R61     CG2R61      HGR61
    3    15    16    17	 9 ;     CG3C50     CG2R61     CG2R61     CG2R61
    3    15    16    43	 9 ;     CG3C50     CG2R61     CG2R61      HGR61
   15    16    17    18	 9 ;     CG2R61     CG2R61     CG2R61     CG2R61
   15    16    17    21	 9 ;     CG2R61     CG2R61     CG2R61     CG2DC1
   43    16    17    18	 9 ;      HGR61     CG2R61     CG2R61     CG2R61
   43    16    17    21	 9 ;      HGR61     CG2R61     CG2R61     CG2DC1
   21    17    18    19	 9 ;     CG2DC1     CG2R61     CG2R61     CG2R61
   21    17    18    44	 9 ;     CG2DC1     CG2R61     CG2R61      HGR61
   16    17    18    19	 9 ;     CG2R61     CG2R61     CG2R61     CG2R61
   16    17    18    44	 9 ;     CG2R61     CG2R61     CG2R61      HGR61
   18    17    21    22	 9 ;     CG2R61     CG2R61     CG2DC1      CG321
   18    17    21    27	 9 ;     CG2R61     CG2R61     CG2DC1     CG2D1O
   16    17    21    22	 9 ;     CG2R61     CG2R61     CG2DC1      CG321
   16    17    21    27	 9 ;     CG2R61     CG2R61     CG2DC1     CG2D1O
   17    18    19    20	 9 ;     CG2R61     CG2R61     CG2R61     CG2R61
   17    18    19    45	 9 ;     CG2R61     CG2R61     CG2R61      HGR61
   44    18    19    20	 9 ;      HGR61     CG2R61     CG2R61     CG2R61
   44    18    19    45	 9 ;      HGR61     CG2R61     CG2R61      HGR61
   18    19    20    15	 9 ;     CG2R61     CG2R61     CG2R61     CG2R61
   18    19    20    46	 9 ;     CG2R61     CG2R61     CG2R61      HGR61
   45    19    20    15	 9 ;      HGR61     CG2R61     CG2R61     CG2R61
   45    19    20    46	 9 ;      HGR61     CG2R61     CG2R61      HGR61
   17    21    22    23	 9 ;     CG2R61     CG2DC1      CG321      NG311
   17    21    22    47	 9 ;     CG2R61     CG2DC1      CG321       HGA2
   17    21    22    51	 9 ;     CG2R61     CG2DC1      CG321       HGA2
   27    21    22    23	 9 ;     CG2D1O     CG2DC1      CG321      NG311
   27    21    22    47	 9 ;     CG2D1O     CG2DC1      CG321       HGA2
   27    21    22    51	 9 ;     CG2D1O     CG2DC1      CG321       HGA2
   22    21    27    26	 9 ;      CG321     CG2DC1     CG2D1O      NG311
   22    21    27    49	 9 ;      CG321     CG2DC1     CG2D1O       HGA4
   17    21    27    26	 9 ;     CG2R61     CG2DC1     CG2D1O      NG311
   17    21    27    49	 9 ;     CG2R61     CG2DC1     CG2D1O       HGA4
   21    22    23    25	 9 ;     CG2DC1      CG321      NG311     HGPAM1
   21    22    23    24	 9 ;     CG2DC1      CG321      NG311      CG321
   47    22    23    25	 9 ;       HGA2      CG321      NG311     HGPAM1
   47    22    23    24	 9 ;       HGA2      CG321      NG311      CG321
   51    22    23    25	 9 ;       HGA2      CG321      NG311     HGPAM1
   51    22    23    24	 9 ;       HGA2      CG321      NG311      CG321
   25    23    24    26	 9 ;     HGPAM1      NG311      CG321      NG311
   25    23    24    48	 9 ;     HGPAM1      NG311      CG321       HGA2
   25    23    24    52	 9 ;     HGPAM1      NG311      CG321       HGA2
   22    23    24    26	 9 ;      CG321      NG311      CG321      NG311
   22    23    24    48	 9 ;      CG321      NG311      CG321       HGA2
   22    23    24    52	 9 ;      CG321      NG311      CG321       HGA2
   23    24    26    27	 9 ;      NG311      CG321      NG311     CG2D1O
   23    24    26    28	 9 ;      NG311      CG321      NG311     HGPAM1
   48    24    26    27	 9 ;       HGA2      CG321      NG311     CG2D1O
   48    24    26    28	 9 ;       HGA2      CG321      NG311     HGPAM1
   52    24    26    27	 9 ;       HGA2      CG321      NG311     CG2D1O
   52    24    26    28	 9 ;       HGA2      CG321      NG311     HGPAM1
   24    26    27    21	 9 ;      CG321      NG311     CG2D1O     CG2DC1
   24    26    27    49	 9 ;      CG321      NG311     CG2D1O       HGA4
   28    26    27    21	 9 ;     HGPAM1      NG311     CG2D1O     CG2DC1
   28    26    27    49	 9 ;     HGPAM1      NG311     CG2D1O       HGA4

[ dihedrals ]
;	ai	  aj	ak	  al funct			  c0			c1			  c2			c3
   27    21    26    49	 2

