GROningen MAchine for Chemical Simulation
   52
    1LIG     O1    1  -1.686   0.416  -1.913
    1LIG     C1    2  -1.623   0.336  -1.813
    1LIG     C2    3  -1.639   0.417  -1.682
    1LIG     N1    4  -1.675   0.553  -1.731
    1LIG    HN3    5  -1.680   0.639  -1.677
    1LIG     C3    6  -1.698   0.538  -1.857
    1LIG     C4    7  -1.757   0.370  -1.592
    1LIG     C5    8  -1.775   0.420  -1.462
    1LIG     C6    9  -1.886   0.386  -1.385
    1LIG     C7   10  -1.984   0.301  -1.436
    1LIG     C8   11  -1.968   0.250  -1.565
    1LIG     C9   12  -1.857   0.284  -1.642
    1LIG     O2   13  -2.099   0.263  -1.372
    1LIG    C10   14  -2.126   0.124  -1.368
    1LIG    C11   15  -1.504   0.419  -1.607
    1LIG    C12   16  -1.451   0.301  -1.552
    1LIG    C13   17  -1.323   0.295  -1.493
    1LIG    C14   18  -1.250   0.414  -1.487
    1LIG    C15   19  -1.302   0.534  -1.538
    1LIG    C16   20  -1.428   0.537  -1.598
    1LIG    C17   21  -1.269   0.167  -1.443
    1LIG    C18   22  -1.219   0.067  -1.526
    1LIG     N2   23  -1.168  -0.051  -1.485
    1LIG    C19   24  -1.165  -0.069  -1.352
    1LIG    HN4   25  -1.133  -0.121  -1.550
    1LIG     N3   26  -1.210   0.018  -1.260
    1LIG    C20   27  -1.261   0.133  -1.309
    1LIG    HN5   28  -1.205  -0.002  -1.161
    1LIG     N4   29  -1.736   0.634  -1.942
    1LIG     H1   30  -1.837   0.644  -1.949
    1LIG     H2   31  -1.686   0.636  -2.030
    1LIG    HC2   32  -1.673   0.240  -1.804
    1LIG    HC3   33  -1.518   0.323  -1.836
    1LIG    HN2   34  -1.577   0.571  -1.751
    1LIG     HC   35  -1.593   0.559  -1.879
    1LIG    HC1   36  -1.701   0.487  -1.421
    1LIG    HC4   37  -1.896   0.425  -1.285
    1LIG    HC5   38  -2.043   0.183  -1.605
    1LIG    HC6   39  -1.847   0.243  -1.742
    1LIG    HC7   40  -2.189   0.101  -1.282
    1LIG    HC8   41  -2.032   0.069  -1.360
    1LIG    HC9   42  -2.177   0.094  -1.460
    1LIG   HC10   43  -1.510   0.211  -1.555
    1LIG   HC11   44  -1.152   0.414  -1.442
    1LIG   HC12   45  -1.243   0.625  -1.531
    1LIG   HC13   46  -1.467   0.629  -1.637
    1LIG   HC14   47  -1.223   0.086  -1.633
    1LIG   HC15   48  -1.124  -0.162  -1.316
    1LIG   HC16   49  -1.298   0.205  -1.237
    1LIG    HN1   50  -1.707   0.720  -1.896
    1LIG    H25   51  -1.120   0.113  -1.522
    1LIG    H26   52  -1.066  -0.023  -1.348
   0.00000   0.00000   0.00000
