Gromacs Runs On Most of All Computer Systems
   48
    1LIG     C1    1  -1.367   0.328  -1.550
    1LIG     C2    2  -1.507   0.344  -1.548
    1LIG     C3    3  -1.571   0.452  -1.610
    1LIG     C4    4  -1.492   0.548  -1.673
    1LIG     O1    5  -1.543   0.659  -1.737
    1LIG     C5    6  -1.678   0.682  -1.732
    1LIG     C6    7  -1.770   0.596  -1.671
    1LIG     C7    8  -1.906   0.631  -1.672
    1LIG     C8    9  -1.950   0.749  -1.732
    1LIG     C9   10  -1.857   0.834  -1.792
    1LIG    C10   11  -1.721   0.800  -1.792
    1LIG    C11   12  -1.722   0.467  -1.605
    1LIG     N1   13  -1.769   0.464  -1.464
    1LIG     HN   14  -1.740   0.526  -1.388
    1LIG    C12   15  -1.853   0.368  -1.458
    1LIG     O2   16  -1.876   0.291  -1.566
    1LIG    C13   17  -1.792   0.344  -1.669
    1LIG     N2   18  -1.924   0.331  -1.350
    1LIG    C14   19  -1.354   0.536  -1.676
    1LIG    C15   20  -1.292   0.427  -1.615
    1LIG     H1   21  -1.958   0.236  -1.349
    1LIG     H2   22  -1.888   0.366  -1.262
    1LIG    C16   23  -1.303   0.213  -1.486
    1LIG    C17   24  -1.275   0.210  -1.348
    1LIG    C18   25  -1.215   0.100  -1.287
    1LIG      F   26  -1.306   0.314  -1.269
    1LIG    C19   27  -1.182  -0.010  -1.364
    1LIG     CL   28  -1.109  -0.147  -1.290
    1LIG    C20   29  -1.207  -0.011  -1.501
    1LIG    C21   30  -1.267   0.099  -1.561
    1LIG     O3   31  -2.080   0.792  -1.738
    1LIG    C22   32  -2.180   0.690  -1.748
    1LIG     HC   33  -1.567   0.270  -1.497
    1LIG    HC1   34  -1.978   0.566  -1.625
    1LIG    HC2   35  -1.890   0.925  -1.838
    1LIG    HC3   36  -1.650   0.866  -1.839
    1LIG    HC4   37  -1.851   0.374  -1.755
    1LIG    HC5   38  -1.717   0.270  -1.698
    1LIG    HC6   39  -1.294   0.611  -1.725
    1LIG    HC7   40  -1.184   0.419  -1.618
    1LIG    HC8   41  -1.195   0.101  -1.181
    1LIG    HC9   42  -1.181  -0.097  -1.561
    1LIG   HC10   43  -1.286   0.098  -1.668
    1LIG   HC11   44  -2.274   0.735  -1.778
    1LIG   HC12   45  -2.191   0.641  -1.651
    1LIG   HC13   46  -2.149   0.617  -1.822
    1LIG    H18   47  -1.933   0.435  -1.488
    1LIG    LP1   48  -1.039  -0.277  -1.220
   0.00000   0.00000   0.00000
