; Created by cgenff_charmm2gmx.py

[ moleculetype ]
; Name			   nrexcl
LIG				 3

[ atoms ]
;	 nr		  type	resnr residue  atom   cgnr	   charge		mass  typeB    chargeB		massB
; residue	 1 LIG rtp LIG q	qsum
     1     CG2R67      1    LIG     C1      1     -0.026     12.011   ;
     2     CG2R61      1    LIG     C2      2     -0.178     12.011   ;
     3     CG2R61      1    LIG     C3      3     -0.123     12.011   ;
     4     CG2R61      1    LIG     C4      4      0.102     12.011   ;
     5     OG3R60      1    LIG     O1      5     -0.292     15.999   ;
     6     CG2R61      1    LIG     C5      6      0.096     12.011   ;
     7     CG2R61      1    LIG     C6      7     -0.118     12.011   ;
     8     CG2R61      1    LIG     C7      8     -0.182     12.011   ;
     9     CG2R61      1    LIG     C8      9      0.222     12.011   ;
    10     CG2R61      1    LIG     C9     10     -0.117     12.011   ;
    11     CG2R61      1    LIG    C10     11     -0.106     12.011   ;
    12     CG3C50      1    LIG    C11     12      1.097     12.011   ;
    13     NG3C51      1    LIG     N1     13     -0.874     14.007   ;
    14       HGP1      1    LIG     HN     14      0.233      1.008   ;
    15     CG3C51      1    LIG    C12     15      0.318     12.011   ;
    16     OG3C51      1    LIG     O2     16     -0.328     15.999   ;
    17     CG3C52      1    LIG    C13     17     -0.151     12.011   ;
    18      NG321      1    LIG     N2     18     -1.079     14.007   ;
    19     CG2R61      1    LIG    C14     19     -0.112     12.011   ;
    20     CG2R61      1    LIG    C15     20     -0.115     12.011   ;
    21     HGPAM2      1    LIG     H1     21      0.454      1.008   ;
    22     HGPAM2      1    LIG     H2     22      0.454      1.008   ;
    23     CG2R67      1    LIG    C16     23      0.194     12.011   ;
    24     CG2R66      1    LIG    C17     24      0.102     12.011   ;
    25     CG2R61      1    LIG    C18     25     -0.080     12.011   ;
    26       FGR1      1    LIG      F     26     -0.230     18.998   ;
    27     CG2R61      1    LIG    C19     27      0.022     12.011   ;
    28      CLGR1      1    LIG     CL     28     -0.200     35.453   ;
    29     CG2R61      1    LIG    C20     29     -0.072     12.011   ;
    30     CG2R61      1    LIG    C21     30     -0.176     12.011   ;
    31      OG301      1    LIG     O3     31     -0.383     15.999   ;
    32      CG331      1    LIG    C22     32     -0.094     12.011   ;
    33      HGR61      1    LIG     HC     33      0.116      1.008   ;
    34      HGR61      1    LIG    HC1     34      0.116      1.008   ;
    35      HGR61      1    LIG    HC2     35      0.116      1.008   ;
    36      HGR61      1    LIG    HC3     36      0.116      1.008   ;
    37       HGA2      1    LIG    HC4     37      0.090      1.008   ;
    38       HGA2      1    LIG    HC5     38      0.090      1.008   ;
    39      HGR61      1    LIG    HC6     39      0.116      1.008   ;
    40      HGR61      1    LIG    HC7     40      0.116      1.008   ;
    41      HGR62      1    LIG    HC8     41      0.168      1.008   ;
    42      HGR62      1    LIG    HC9     42      0.146      1.008   ;
    43      HGR61      1    LIG   HC10     43      0.116      1.008   ;
    44       HGA3      1    LIG   HC11     44      0.090      1.008   ;
    45       HGA3      1    LIG   HC12     45      0.090      1.008   ;
    46       HGA3      1    LIG   HC13     46      0.090      1.008   ;
    47       HGA1      1    LIG    H18     47      0.116      1.008   ;
    48        LPH      1    LIG    LP1     48      0.050      0.000   ;

[ bonds ]
;	ai	  aj funct			  c0			c1			  c2			c3
    1    20	 1 ;      CG2R67     CG2R61
    1    23	 1 ;      CG2R67     CG2R67
    1     2	 1 ;      CG2R67     CG2R61
    2     3	 1 ;      CG2R61     CG2R61
    2    33	 1 ;      CG2R61      HGR61
    3     4	 1 ;      CG2R61     CG2R61
    3    12	 1 ;      CG2R61     CG3C50
    4    19	 1 ;      CG2R61     CG2R61
    4     5	 1 ;      CG2R61     OG3R60
    5     6	 1 ;      OG3R60     CG2R61
    6    11	 1 ;      CG2R61     CG2R61
    6     7	 1 ;      CG2R61     CG2R61
    7    12	 1 ;      CG2R61     CG3C50
    7     8	 1 ;      CG2R61     CG2R61
    8     9	 1 ;      CG2R61     CG2R61
    8    34	 1 ;      CG2R61      HGR61
    9    10	 1 ;      CG2R61     CG2R61
    9    31	 1 ;      CG2R61      OG301
   10    11	 1 ;      CG2R61     CG2R61
   10    35	 1 ;      CG2R61      HGR61
   11    36	 1 ;      CG2R61      HGR61
   12    17	 1 ;      CG3C50     CG3C52
   12    13	 1 ;      CG3C50     NG3C51
   13    14	 1 ;      NG3C51       HGP1
   13    15	 1 ;      NG3C51     CG3C51
   15    16	 1 ;      CG3C51     OG3C51
   15    18	 1 ;      CG3C51      NG321
   15    47	 1 ;      CG3C51       HGA1
   16    17	 1 ;      OG3C51     CG3C52
   17    37	 1 ;      CG3C52       HGA2
   17    38	 1 ;      CG3C52       HGA2
   18    22	 1 ;       NG321     HGPAM2
   18    21	 1 ;       NG321     HGPAM2
   19    20	 1 ;      CG2R61     CG2R61
   19    39	 1 ;      CG2R61      HGR61
   20    40	 1 ;      CG2R61      HGR61
   23    30	 1 ;      CG2R67     CG2R61
   23    24	 1 ;      CG2R67     CG2R66
   24    25	 1 ;      CG2R66     CG2R61
   24    26	 1 ;      CG2R66       FGR1
   25    27	 1 ;      CG2R61     CG2R61
   25    41	 1 ;      CG2R61      HGR62
   27    29	 1 ;      CG2R61     CG2R61
   27    28	 1 ;      CG2R61      CLGR1
   29    30	 1 ;      CG2R61     CG2R61
   29    42	 1 ;      CG2R61      HGR62
   30    43	 1 ;      CG2R61      HGR61
   31    32	 1 ;       OG301      CG331
   32    44	 1 ;       CG331       HGA3
   32    45	 1 ;       CG331       HGA3
   32    46	 1 ;       CG331       HGA3

[ pairs ]
;	ai	  aj funct			  c0			c1			  c2			c3
    1     4	 1
    1    12	 1
    1    39	 1
    1    29	 1
    1    43	 1
    1    25	 1
    1    26	 1
    2    19	 1
    2    40	 1
    2    30	 1
    2    24	 1
    2     5	 1
    2     7	 1
    2    17	 1
    2    13	 1
    3    20	 1
    3    23	 1
    3    39	 1
    3     6	 1
    3     8	 1
    3    16	 1
    3    37	 1
    3    38	 1
    3    14	 1
    3    15	 1
    4    33	 1
    4     7	 1
    4    17	 1
    4    13	 1
    4    11	 1
    4    40	 1
    5    12	 1
    5    20	 1
    5    39	 1
    5    10	 1
    5    36	 1
    5     8	 1
    6    19	 1
    6    17	 1
    6    13	 1
    6     9	 1
    6    34	 1
    6    35	 1
    7    10	 1
    7    36	 1
    7    31	 1
    7    16	 1
    7    37	 1
    7    38	 1
    7    14	 1
    7    15	 1
    8    11	 1
    8    17	 1
    8    13	 1
    8    35	 1
    8    32	 1
    9    12	 1
    9    36	 1
    9    44	 1
    9    45	 1
    9    46	 1
   10    34	 1
   10    32	 1
   11    12	 1
   11    31	 1
   12    33	 1
   12    19	 1
   12    34	 1
   12    18	 1
   12    47	 1
   13    37	 1
   13    38	 1
   13    22	 1
   13    21	 1
   14    17	 1
   14    16	 1
   14    18	 1
   14    47	 1
   15    37	 1
   15    38	 1
   16    22	 1
   16    21	 1
   17    18	 1
   17    47	 1
   19    23	 1
   20    30	 1
   20    24	 1
   20    33	 1
   21    47	 1
   22    47	 1
   23    40	 1
   23    33	 1
   23    27	 1
   23    41	 1
   23    42	 1
   24    29	 1
   24    43	 1
   24    28	 1
   48    24	 1
   25    30	 1
   25    42	 1
   26    30	 1
   26    27	 1
   26    41	 1
   27    43	 1
   28    41	 1
   48    41	 1
   28    30	 1
   48    30	 1
   28    42	 1
   48    42	 1
   29    41	 1
   31    34	 1
   31    35	 1
   35    36	 1
   39    40	 1
   42    43	 1

[ angles ]
;	ai	  aj	ak funct			c0			  c1			c2			  c3
   20     1    23	5 ;     CG2R61     CG2R67     CG2R67
   20     1     2	5 ;     CG2R61     CG2R67     CG2R61
   23     1     2	5 ;     CG2R67     CG2R67     CG2R61
    1     2     3	5 ;     CG2R67     CG2R61     CG2R61
    1     2    33	5 ;     CG2R67     CG2R61      HGR61
    3     2    33	5 ;     CG2R61     CG2R61      HGR61
    4     3     2	5 ;     CG2R61     CG2R61     CG2R61
    4     3    12	5 ;     CG2R61     CG2R61     CG3C50
    2     3    12	5 ;     CG2R61     CG2R61     CG3C50
   19     4     5	5 ;     CG2R61     CG2R61     OG3R60
   19     4     3	5 ;     CG2R61     CG2R61     CG2R61
    5     4     3	5 ;     OG3R60     CG2R61     CG2R61
    4     5     6	5 ;     CG2R61     OG3R60     CG2R61
    5     6    11	5 ;     OG3R60     CG2R61     CG2R61
    5     6     7	5 ;     OG3R60     CG2R61     CG2R61
   11     6     7	5 ;     CG2R61     CG2R61     CG2R61
    6     7    12	5 ;     CG2R61     CG2R61     CG3C50
    6     7     8	5 ;     CG2R61     CG2R61     CG2R61
   12     7     8	5 ;     CG3C50     CG2R61     CG2R61
    7     8     9	5 ;     CG2R61     CG2R61     CG2R61
    7     8    34	5 ;     CG2R61     CG2R61      HGR61
    9     8    34	5 ;     CG2R61     CG2R61      HGR61
   10     9     8	5 ;     CG2R61     CG2R61     CG2R61
   10     9    31	5 ;     CG2R61     CG2R61      OG301
    8     9    31	5 ;     CG2R61     CG2R61      OG301
   11    10     9	5 ;     CG2R61     CG2R61     CG2R61
   11    10    35	5 ;     CG2R61     CG2R61      HGR61
    9    10    35	5 ;     CG2R61     CG2R61      HGR61
    6    11    10	5 ;     CG2R61     CG2R61     CG2R61
    6    11    36	5 ;     CG2R61     CG2R61      HGR61
   10    11    36	5 ;     CG2R61     CG2R61      HGR61
    3    12     7	5 ;     CG2R61     CG3C50     CG2R61
    3    12    17	5 ;     CG2R61     CG3C50     CG3C52
    3    12    13	5 ;     CG2R61     CG3C50     NG3C51
    7    12    17	5 ;     CG2R61     CG3C50     CG3C52
    7    12    13	5 ;     CG2R61     CG3C50     NG3C51
   17    12    13	5 ;     CG3C52     CG3C50     NG3C51
   12    13    14	5 ;     CG3C50     NG3C51       HGP1
   12    13    15	5 ;     CG3C50     NG3C51     CG3C51
   14    13    15	5 ;       HGP1     NG3C51     CG3C51
   13    15    16	5 ;     NG3C51     CG3C51     OG3C51
   13    15    18	5 ;     NG3C51     CG3C51      NG321
   13    15    47	5 ;     NG3C51     CG3C51       HGA1
   16    15    18	5 ;     OG3C51     CG3C51      NG321
   16    15    47	5 ;     OG3C51     CG3C51       HGA1
   18    15    47	5 ;      NG321     CG3C51       HGA1
   17    16    15	5 ;     CG3C52     OG3C51     CG3C51
   12    17    16	5 ;     CG3C50     CG3C52     OG3C51
   12    17    37	5 ;     CG3C50     CG3C52       HGA2
   12    17    38	5 ;     CG3C50     CG3C52       HGA2
   16    17    37	5 ;     OG3C51     CG3C52       HGA2
   16    17    38	5 ;     OG3C51     CG3C52       HGA2
   37    17    38	5 ;       HGA2     CG3C52       HGA2
   15    18    22	5 ;     CG3C51      NG321     HGPAM2
   15    18    21	5 ;     CG3C51      NG321     HGPAM2
   22    18    21	5 ;     HGPAM2      NG321     HGPAM2
   20    19     4	5 ;     CG2R61     CG2R61     CG2R61
   20    19    39	5 ;     CG2R61     CG2R61      HGR61
    4    19    39	5 ;     CG2R61     CG2R61      HGR61
   19    20     1	5 ;     CG2R61     CG2R61     CG2R67
   19    20    40	5 ;     CG2R61     CG2R61      HGR61
    1    20    40	5 ;     CG2R67     CG2R61      HGR61
   30    23     1	5 ;     CG2R61     CG2R67     CG2R67
   30    23    24	5 ;     CG2R61     CG2R67     CG2R66
    1    23    24	5 ;     CG2R67     CG2R67     CG2R66
   23    24    25	5 ;     CG2R67     CG2R66     CG2R61
   23    24    26	5 ;     CG2R67     CG2R66       FGR1
   25    24    26	5 ;     CG2R61     CG2R66       FGR1
   27    25    24	5 ;     CG2R61     CG2R61     CG2R66
   27    25    41	5 ;     CG2R61     CG2R61      HGR62
   24    25    41	5 ;     CG2R66     CG2R61      HGR62
   29    27    28	5 ;     CG2R61     CG2R61      CLGR1
   29    27    25	5 ;     CG2R61     CG2R61     CG2R61
   28    27    25	5 ;      CLGR1     CG2R61     CG2R61
   30    29    27	5 ;     CG2R61     CG2R61     CG2R61
   30    29    42	5 ;     CG2R61     CG2R61      HGR62
   27    29    42	5 ;     CG2R61     CG2R61      HGR62
   29    30    23	5 ;     CG2R61     CG2R61     CG2R67
   29    30    43	5 ;     CG2R61     CG2R61      HGR61
   23    30    43	5 ;     CG2R67     CG2R61      HGR61
    9    31    32	5 ;     CG2R61      OG301      CG331
   31    32    44	5 ;      OG301      CG331       HGA3
   31    32    45	5 ;      OG301      CG331       HGA3
   31    32    46	5 ;      OG301      CG331       HGA3
   44    32    45	5 ;       HGA3      CG331       HGA3
   44    32    46	5 ;       HGA3      CG331       HGA3
   45    32    46	5 ;       HGA3      CG331       HGA3

[ dihedrals ]
;	ai	  aj	ak	  al funct			  c0			c1			  c2			c3			  c4			c5
   23     1    20    19	 9 ;     CG2R67     CG2R67     CG2R61     CG2R61
   23     1    20    40	 9 ;     CG2R67     CG2R67     CG2R61      HGR61
    2     1    20    19	 9 ;     CG2R61     CG2R67     CG2R61     CG2R61
    2     1    20    40	 9 ;     CG2R61     CG2R67     CG2R61      HGR61
   20     1    23    30	 9 ;     CG2R61     CG2R67     CG2R67     CG2R61
   20     1    23    24	 9 ;     CG2R61     CG2R67     CG2R67     CG2R66
    2     1    23    30	 9 ;     CG2R61     CG2R67     CG2R67     CG2R61
    2     1    23    24	 9 ;     CG2R61     CG2R67     CG2R67     CG2R66
   20     1     2     3	 9 ;     CG2R61     CG2R67     CG2R61     CG2R61
   20     1     2    33	 9 ;     CG2R61     CG2R67     CG2R61      HGR61
   23     1     2     3	 9 ;     CG2R67     CG2R67     CG2R61     CG2R61
   23     1     2    33	 9 ;     CG2R67     CG2R67     CG2R61      HGR61
    1     2     3     4	 9 ;     CG2R67     CG2R61     CG2R61     CG2R61
    1     2     3    12	 9 ;     CG2R67     CG2R61     CG2R61     CG3C50
   33     2     3     4	 9 ;      HGR61     CG2R61     CG2R61     CG2R61
   33     2     3    12	 9 ;      HGR61     CG2R61     CG2R61     CG3C50
    2     3     4    19	 9 ;     CG2R61     CG2R61     CG2R61     CG2R61
    2     3     4     5	 9 ;     CG2R61     CG2R61     CG2R61     OG3R60
   12     3     4    19	 9 ;     CG3C50     CG2R61     CG2R61     CG2R61
   12     3     4     5	 9 ;     CG3C50     CG2R61     CG2R61     OG3R60
    4     3    12     7	 9 ;     CG2R61     CG2R61     CG3C50     CG2R61
    4     3    12    17	 9 ;     CG2R61     CG2R61     CG3C50     CG3C52
    4     3    12    13	 9 ;     CG2R61     CG2R61     CG3C50     NG3C51
    2     3    12     7	 9 ;     CG2R61     CG2R61     CG3C50     CG2R61
    2     3    12    17	 9 ;     CG2R61     CG2R61     CG3C50     CG3C52
    2     3    12    13	 9 ;     CG2R61     CG2R61     CG3C50     NG3C51
    5     4    19    20	 9 ;     OG3R60     CG2R61     CG2R61     CG2R61
    5     4    19    39	 9 ;     OG3R60     CG2R61     CG2R61      HGR61
    3     4    19    20	 9 ;     CG2R61     CG2R61     CG2R61     CG2R61
    3     4    19    39	 9 ;     CG2R61     CG2R61     CG2R61      HGR61
   19     4     5     6	 9 ;     CG2R61     CG2R61     OG3R60     CG2R61
    3     4     5     6	 9 ;     CG2R61     CG2R61     OG3R60     CG2R61
    4     5     6    11	 9 ;     CG2R61     OG3R60     CG2R61     CG2R61
    4     5     6     7	 9 ;     CG2R61     OG3R60     CG2R61     CG2R61
    5     6    11    10	 9 ;     OG3R60     CG2R61     CG2R61     CG2R61
    5     6    11    36	 9 ;     OG3R60     CG2R61     CG2R61      HGR61
    7     6    11    10	 9 ;     CG2R61     CG2R61     CG2R61     CG2R61
    7     6    11    36	 9 ;     CG2R61     CG2R61     CG2R61      HGR61
    5     6     7    12	 9 ;     OG3R60     CG2R61     CG2R61     CG3C50
    5     6     7     8	 9 ;     OG3R60     CG2R61     CG2R61     CG2R61
   11     6     7    12	 9 ;     CG2R61     CG2R61     CG2R61     CG3C50
   11     6     7     8	 9 ;     CG2R61     CG2R61     CG2R61     CG2R61
    6     7    12     3	 9 ;     CG2R61     CG2R61     CG3C50     CG2R61
    6     7    12    17	 9 ;     CG2R61     CG2R61     CG3C50     CG3C52
    6     7    12    13	 9 ;     CG2R61     CG2R61     CG3C50     NG3C51
    8     7    12     3	 9 ;     CG2R61     CG2R61     CG3C50     CG2R61
    8     7    12    17	 9 ;     CG2R61     CG2R61     CG3C50     CG3C52
    8     7    12    13	 9 ;     CG2R61     CG2R61     CG3C50     NG3C51
    6     7     8     9	 9 ;     CG2R61     CG2R61     CG2R61     CG2R61
    6     7     8    34	 9 ;     CG2R61     CG2R61     CG2R61      HGR61
   12     7     8     9	 9 ;     CG3C50     CG2R61     CG2R61     CG2R61
   12     7     8    34	 9 ;     CG3C50     CG2R61     CG2R61      HGR61
    7     8     9    10	 9 ;     CG2R61     CG2R61     CG2R61     CG2R61
    7     8     9    31	 9 ;     CG2R61     CG2R61     CG2R61      OG301
   34     8     9    10	 9 ;      HGR61     CG2R61     CG2R61     CG2R61
   34     8     9    31	 9 ;      HGR61     CG2R61     CG2R61      OG301
    8     9    10    11	 9 ;     CG2R61     CG2R61     CG2R61     CG2R61
    8     9    10    35	 9 ;     CG2R61     CG2R61     CG2R61      HGR61
   31     9    10    11	 9 ;      OG301     CG2R61     CG2R61     CG2R61
   31     9    10    35	 9 ;      OG301     CG2R61     CG2R61      HGR61
   10     9    31    32	 9 ;     CG2R61     CG2R61      OG301      CG331
    8     9    31    32	 9 ;     CG2R61     CG2R61      OG301      CG331
    9    10    11     6	 9 ;     CG2R61     CG2R61     CG2R61     CG2R61
    9    10    11    36	 9 ;     CG2R61     CG2R61     CG2R61      HGR61
   35    10    11     6	 9 ;      HGR61     CG2R61     CG2R61     CG2R61
   35    10    11    36	 9 ;      HGR61     CG2R61     CG2R61      HGR61
    3    12    17    16	 9 ;     CG2R61     CG3C50     CG3C52     OG3C51
    3    12    17    37	 9 ;     CG2R61     CG3C50     CG3C52       HGA2
    3    12    17    38	 9 ;     CG2R61     CG3C50     CG3C52       HGA2
    7    12    17    16	 9 ;     CG2R61     CG3C50     CG3C52     OG3C51
    7    12    17    37	 9 ;     CG2R61     CG3C50     CG3C52       HGA2
    7    12    17    38	 9 ;     CG2R61     CG3C50     CG3C52       HGA2
   13    12    17    16	 9 ;     NG3C51     CG3C50     CG3C52     OG3C51
   13    12    17    37	 9 ;     NG3C51     CG3C50     CG3C52       HGA2
   13    12    17    38	 9 ;     NG3C51     CG3C50     CG3C52       HGA2
    3    12    13    14	 9 ;     CG2R61     CG3C50     NG3C51       HGP1
    3    12    13    15	 9 ;     CG2R61     CG3C50     NG3C51     CG3C51
    7    12    13    14	 9 ;     CG2R61     CG3C50     NG3C51       HGP1
    7    12    13    15	 9 ;     CG2R61     CG3C50     NG3C51     CG3C51
   17    12    13    14	 9 ;     CG3C52     CG3C50     NG3C51       HGP1
   17    12    13    15	 9 ;     CG3C52     CG3C50     NG3C51     CG3C51
   12    13    15    16	 9 ;     CG3C50     NG3C51     CG3C51     OG3C51
   12    13    15    18	 9 ;     CG3C50     NG3C51     CG3C51      NG321
   12    13    15    47	 9 ;     CG3C50     NG3C51     CG3C51       HGA1
   14    13    15    16	 9 ;       HGP1     NG3C51     CG3C51     OG3C51
   14    13    15    18	 9 ;       HGP1     NG3C51     CG3C51      NG321
   14    13    15    47	 9 ;       HGP1     NG3C51     CG3C51       HGA1
   13    15    16    17	 9 ;     NG3C51     CG3C51     OG3C51     CG3C52
   18    15    16    17	 9 ;      NG321     CG3C51     OG3C51     CG3C52
   47    15    16    17	 9 ;       HGA1     CG3C51     OG3C51     CG3C52
   13    15    18    22	 9 ;     NG3C51     CG3C51      NG321     HGPAM2
   13    15    18    21	 9 ;     NG3C51     CG3C51      NG321     HGPAM2
   16    15    18    22	 9 ;     OG3C51     CG3C51      NG321     HGPAM2
   16    15    18    21	 9 ;     OG3C51     CG3C51      NG321     HGPAM2
   47    15    18    22	 9 ;       HGA1     CG3C51      NG321     HGPAM2
   47    15    18    21	 9 ;       HGA1     CG3C51      NG321     HGPAM2
   15    16    17    12	 9 ;     CG3C51     OG3C51     CG3C52     CG3C50
   15    16    17    37	 9 ;     CG3C51     OG3C51     CG3C52       HGA2
   15    16    17    38	 9 ;     CG3C51     OG3C51     CG3C52       HGA2
    4    19    20     1	 9 ;     CG2R61     CG2R61     CG2R61     CG2R67
    4    19    20    40	 9 ;     CG2R61     CG2R61     CG2R61      HGR61
   39    19    20     1	 9 ;      HGR61     CG2R61     CG2R61     CG2R67
   39    19    20    40	 9 ;      HGR61     CG2R61     CG2R61      HGR61
    1    23    30    29	 9 ;     CG2R67     CG2R67     CG2R61     CG2R61
    1    23    30    43	 9 ;     CG2R67     CG2R67     CG2R61      HGR61
   24    23    30    29	 9 ;     CG2R66     CG2R67     CG2R61     CG2R61
   24    23    30    43	 9 ;     CG2R66     CG2R67     CG2R61      HGR61
   30    23    24    25	 9 ;     CG2R61     CG2R67     CG2R66     CG2R61
   30    23    24    26	 9 ;     CG2R61     CG2R67     CG2R66       FGR1
    1    23    24    25	 9 ;     CG2R67     CG2R67     CG2R66     CG2R61
    1    23    24    26	 9 ;     CG2R67     CG2R67     CG2R66       FGR1
   23    24    25    27	 9 ;     CG2R67     CG2R66     CG2R61     CG2R61
   23    24    25    41	 9 ;     CG2R67     CG2R66     CG2R61      HGR62
   26    24    25    27	 9 ;       FGR1     CG2R66     CG2R61     CG2R61
   26    24    25    41	 9 ;       FGR1     CG2R66     CG2R61      HGR62
   24    25    27    29	 9 ;     CG2R66     CG2R61     CG2R61     CG2R61
   24    25    27    28	 9 ;     CG2R66     CG2R61     CG2R61      CLGR1
   41    25    27    29	 9 ;      HGR62     CG2R61     CG2R61     CG2R61
   41    25    27    28	 9 ;      HGR62     CG2R61     CG2R61      CLGR1
   28    27    29    30	 9 ;      CLGR1     CG2R61     CG2R61     CG2R61
   28    27    29    42	 9 ;      CLGR1     CG2R61     CG2R61      HGR62
   25    27    29    30	 9 ;     CG2R61     CG2R61     CG2R61     CG2R61
   25    27    29    42	 9 ;     CG2R61     CG2R61     CG2R61      HGR62
   27    29    30    23	 9 ;     CG2R61     CG2R61     CG2R61     CG2R67
   27    29    30    43	 9 ;     CG2R61     CG2R61     CG2R61      HGR61
   42    29    30    23	 9 ;      HGR62     CG2R61     CG2R61     CG2R67
   42    29    30    43	 9 ;      HGR62     CG2R61     CG2R61      HGR61
    9    31    32    44	 9 ;     CG2R61      OG301      CG331       HGA3
    9    31    32    45	 9 ;     CG2R61      OG301      CG331       HGA3
    9    31    32    46	 9 ;     CG2R61      OG301      CG331       HGA3

[ virtual_sites2 ]
; Site   from				funct a
   48    28    27     2   -0.164

[ exclusions ]
;	ai	  aj
   28    48
   48    27
   48    29
   48    25
   48    24
   48    41
   48    30
   48    42

