Guyana Rwanda Oman Macau Angola Cameroon Senegal
   74
    1LIG     N1    1  -1.724   0.521  -1.519
    1LIG     H1    2  -1.705   0.558  -1.614
    1LIG     H2    3  -1.825   0.501  -1.522
    1LIG     C1    4  -1.648   0.388  -1.499
    1LIG     C2    5  -1.660   0.350  -1.349
    1LIG     C3    6  -1.804   0.329  -1.301
    1LIG     C4    7  -1.877   0.224  -1.383
    1LIG     C5    8  -1.871   0.254  -1.533
    1LIG     C6    9  -1.728   0.281  -1.581
    1LIG     C7   10  -1.505   0.392  -1.557
    1LIG     C8   11  -1.486   0.437  -1.688
    1LIG     C9   12  -1.361   0.426  -1.750
    1LIG    C10   13  -1.250   0.369  -1.686
    1LIG     BR   14  -1.095   0.371  -1.796
    1LIG    C11   15  -1.262   0.318  -1.555
    1LIG    C12   16  -1.390   0.337  -1.492
    1LIG    C13   17  -1.155   0.234  -1.478
    1LIG    C14   18  -1.146   0.094  -1.546
    1LIG    C15   19  -1.008   0.283  -1.474
    1LIG    C16   20  -1.194   0.215  -1.330
    1LIG    C17   21  -1.701   0.638  -1.426
    1LIG    C18   22  -1.724   0.771  -1.506
    1LIG     O1   23  -1.819   0.841  -1.424
    1LIG     H3   24  -1.883   0.774  -1.390
    1LIG    C19   25  -1.594   0.857  -1.531
    1LIG    C20   26  -1.510   0.803  -1.653
    1LIG    C21   27  -1.365   0.778  -1.616
    1LIG    C22   28  -1.263   0.802  -1.710
    1LIG    C23   29  -1.134   0.752  -1.689
    1LIG     F1   30  -1.041   0.767  -1.784
    1LIG    C24   31  -1.102   0.683  -1.573
    1LIG    C25   32  -1.201   0.668  -1.477
    1LIG     F2   33  -1.173   0.600  -1.364
    1LIG    C26   34  -1.329   0.717  -1.496
    1LIG     N2   35  -1.612   1.003  -1.555
    1LIG    C27   36  -1.694   1.083  -1.626
    1LIG     O2   37  -1.699   1.201  -1.592
    1LIG    C28   38  -1.770   1.034  -1.744
    1LIG     H4   39  -1.578   1.062  -1.480
    1LIG    HC2   40  -1.615   0.429  -1.290
    1LIG    HC3   41  -1.604   0.257  -1.332
    1LIG    HC4   42  -1.802   0.297  -1.196
    1LIG    HC5   43  -1.858   0.424  -1.308
    1LIG    HC6   44  -1.981   0.221  -1.352
    1LIG    HC7   45  -1.832   0.127  -1.365
    1LIG    HC8   46  -1.911   0.169  -1.587
    1LIG    HC9   47  -1.932   0.342  -1.553
    1LIG   HC10   48  -1.733   0.314  -1.684
    1LIG   HC11   49  -1.673   0.187  -1.577
    1LIG     HC   50  -1.569   0.480  -1.742
    1LIG    HC1   51  -1.350   0.464  -1.851
    1LIG   HC12   52  -1.400   0.308  -1.388
    1LIG   HC13   53  -1.246   0.051  -1.553
    1LIG   HC14   54  -1.103   0.105  -1.646
    1LIG   HC15   55  -1.082   0.029  -1.486
    1LIG   HC16   56  -0.965   0.262  -1.376
    1LIG   HC17   57  -1.005   0.390  -1.492
    1LIG   HC18   58  -0.950   0.231  -1.551
    1LIG   HC19   59  -1.111   0.171  -1.275
    1LIG   HC20   60  -1.219   0.312  -1.286
    1LIG   HC21   61  -1.281   0.150  -1.323
    1LIG   HC22   62  -1.770   0.633  -1.343
    1LIG   HC23   63  -1.598   0.635  -1.389
    1LIG   HC24   64  -1.769   0.747  -1.602
    1LIG   HC25   65  -1.531   0.847  -1.442
    1LIG   HC26   66  -1.514   0.876  -1.733
    1LIG   HC27   67  -1.554   0.709  -1.687
    1LIG   HC28   68  -1.285   0.858  -1.800
    1LIG   HC29   69  -1.004   0.641  -1.559
    1LIG   HC30   70  -1.403   0.707  -1.417
    1LIG   HC31   71  -1.829   1.116  -1.785
    1LIG   HC32   72  -1.836   0.953  -1.714
    1LIG   HC33   73  -1.701   0.998  -1.820
    1LIG    LP1   74  -0.941   0.373  -1.905
   0.00000   0.00000   0.00000
