; Created by cgenff_charmm2gmx.py

[ moleculetype ]
; Name			   nrexcl
LIG				 3

[ atoms ]
;	 nr		  type	resnr residue  atom   cgnr	   charge		mass  typeB    chargeB		massB
; residue	 1 LIG rtp LIG q	qsum
     1      NG3P2      1    LIG     N1      1     -0.450     14.007   ;
     2       HGP2      1    LIG     H1      2      0.341      1.008   ;
     3       HGP2      1    LIG     H2      3      0.341      1.008   ;
     4      CG324      1    LIG     C1      4      0.208     12.011   ;
     5      CG311      1    LIG     C2      5      0.089     12.011   ;
     6      OG311      1    LIG     O1      6     -0.625     15.999   ;
     7       HGP1      1    LIG     H3      7      0.415      1.008   ;
     8      CG311      1    LIG     C3      8     -0.007     12.011   ;
     9      CG321      1    LIG     C4      9     -0.153     12.011   ;
    10     CG2R61      1    LIG     C5     10      0.057     12.011   ;
    11     CG2R61      1    LIG     C6     11     -0.218     12.011   ;
    12     CG2R66      1    LIG     C7     12      0.261     12.011   ;
    13       FGR1      1    LIG     F1     13     -0.210     18.998   ;
    14     CG2R61      1    LIG     C8     14     -0.240     12.011   ;
    15     CG2R66      1    LIG     C9     15      0.261     12.011   ;
    16     CG2R61      1    LIG    C10     16     -0.218     12.011   ;
    17       FGR1      1    LIG     F2     17     -0.210     18.998   ;
    18      NG2S1      1    LIG     N2     18     -0.339     14.007   ;
    19      CG2O1      1    LIG    C11     19      0.488     12.011   ;
    20      OG2D1      1    LIG     O2     20     -0.509     15.999   ;
    21      CG331      1    LIG    C12     21     -0.270     12.011   ;
    22       HGP1      1    LIG     H4     22      0.261      1.008   ;
    23      CG301      1    LIG    C13     23      0.295     12.011   ;
    24      CG321      1    LIG    C14     24     -0.147     12.011   ;
    25      CG321      1    LIG    C15     25     -0.202     12.011   ;
    26      CG321      1    LIG    C16     26     -0.176     12.011   ;
    27      CG321      1    LIG    C17     27     -0.202     12.011   ;
    28      CG321      1    LIG    C18     28     -0.147     12.011   ;
    29     CG2R61      1    LIG    C19     29      0.086     12.011   ;
    30     CG2R61      1    LIG    C20     30     -0.133     12.011   ;
    31     CG2R61      1    LIG    C21     31     -0.099     12.011   ;
    32     CG2R61      1    LIG    C22     32     -0.120     12.011   ;
    33     CG2R61      1    LIG    C23     33     -0.109     12.011   ;
    34     CG2R61      1    LIG    C24     34     -0.129     12.011   ;
    35     CG3C51      1    LIG    C25     35     -0.016     12.011   ;
    36     CG3C52      1    LIG    C26     36     -0.178     12.011   ;
    37     CG3C52      1    LIG    C27     37     -0.168     12.011   ;
    38     CG3C52      1    LIG    C28     38     -0.168     12.011   ;
    39     CG3C52      1    LIG    C29     39     -0.178     12.011   ;
    40       HGA2      1    LIG    HC2     40      0.090      1.008   ;
    41       HGA2      1    LIG    HC3     41      0.090      1.008   ;
    42       HGA1      1    LIG     HC     42      0.090      1.008   ;
    43       HGA1      1    LIG    HC1     43      0.090      1.008   ;
    44       HGA2      1    LIG    HC4     44      0.090      1.008   ;
    45       HGA2      1    LIG    HC5     45      0.090      1.008   ;
    46      HGR62      1    LIG    HC6     46      0.174      1.008   ;
    47      HGR62      1    LIG    HC7     47      0.186      1.008   ;
    48      HGR62      1    LIG    HC8     48      0.174      1.008   ;
    49       HGA3      1    LIG    HC9     49      0.090      1.008   ;
    50       HGA3      1    LIG   HC10     50      0.090      1.008   ;
    51       HGA3      1    LIG   HC11     51      0.090      1.008   ;
    52       HGA2      1    LIG   HC12     52      0.090      1.008   ;
    53       HGA2      1    LIG   HC13     53      0.090      1.008   ;
    54       HGA2      1    LIG   HC14     54      0.090      1.008   ;
    55       HGA2      1    LIG   HC15     55      0.090      1.008   ;
    56       HGA2      1    LIG   HC16     56      0.090      1.008   ;
    57       HGA2      1    LIG   HC17     57      0.090      1.008   ;
    58       HGA2      1    LIG   HC18     58      0.090      1.008   ;
    59       HGA2      1    LIG   HC19     59      0.090      1.008   ;
    60       HGA2      1    LIG   HC20     60      0.090      1.008   ;
    61       HGA2      1    LIG   HC21     61      0.090      1.008   ;
    62      HGR61      1    LIG   HC22     62      0.116      1.008   ;
    63      HGR61      1    LIG   HC23     63      0.116      1.008   ;
    64      HGR61      1    LIG   HC24     64      0.116      1.008   ;
    65      HGR61      1    LIG   HC25     65      0.116      1.008   ;
    66       HGA1      1    LIG   HC26     66      0.090      1.008   ;
    67       HGA2      1    LIG   HC27     67      0.090      1.008   ;
    68       HGA2      1    LIG   HC28     68      0.090      1.008   ;
    69       HGA2      1    LIG   HC29     69      0.090      1.008   ;
    70       HGA2      1    LIG   HC30     70      0.090      1.008   ;
    71       HGA2      1    LIG   HC31     71      0.090      1.008   ;
    72       HGA2      1    LIG   HC32     72      0.090      1.008   ;
    73       HGA2      1    LIG   HC33     73      0.090      1.008   ;
    74       HGA2      1    LIG   HC34     74      0.090      1.008   ;

[ bonds ]
;	ai	  aj funct			  c0			c1			  c2			c3
    1     3	 1 ;       NG3P2       HGP2
    1     4	 1 ;       NG3P2      CG324
    1     2	 1 ;       NG3P2       HGP2
    1    23	 1 ;       NG3P2      CG301
    4     5	 1 ;       CG324      CG311
    4    40	 1 ;       CG324       HGA2
    4    41	 1 ;       CG324       HGA2
    5     8	 1 ;       CG311      CG311
    5     6	 1 ;       CG311      OG311
    5    42	 1 ;       CG311       HGA1
    6     7	 1 ;       OG311       HGP1
    8    18	 1 ;       CG311      NG2S1
    8     9	 1 ;       CG311      CG321
    8    43	 1 ;       CG311       HGA1
    9    10	 1 ;       CG321     CG2R61
    9    44	 1 ;       CG321       HGA2
    9    45	 1 ;       CG321       HGA2
   10    16	 1 ;      CG2R61     CG2R61
   10    11	 1 ;      CG2R61     CG2R61
   11    12	 1 ;      CG2R61     CG2R66
   11    46	 1 ;      CG2R61      HGR62
   12    14	 1 ;      CG2R66     CG2R61
   12    13	 1 ;      CG2R66       FGR1
   14    15	 1 ;      CG2R61     CG2R66
   14    47	 1 ;      CG2R61      HGR62
   15    17	 1 ;      CG2R66       FGR1
   15    16	 1 ;      CG2R66     CG2R61
   16    48	 1 ;      CG2R61      HGR62
   18    22	 1 ;       NG2S1       HGP1
   18    19	 1 ;       NG2S1      CG2O1
   19    21	 1 ;       CG2O1      CG331
   19    20	 1 ;       CG2O1      OG2D1
   21    49	 1 ;       CG331       HGA3
   21    50	 1 ;       CG331       HGA3
   21    51	 1 ;       CG331       HGA3
   23    29	 1 ;       CG301     CG2R61
   23    24	 1 ;       CG301      CG321
   23    28	 1 ;       CG301      CG321
   24    25	 1 ;       CG321      CG321
   24    52	 1 ;       CG321       HGA2
   24    53	 1 ;       CG321       HGA2
   25    26	 1 ;       CG321      CG321
   25    54	 1 ;       CG321       HGA2
   25    55	 1 ;       CG321       HGA2
   26    27	 1 ;       CG321      CG321
   26    56	 1 ;       CG321       HGA2
   26    57	 1 ;       CG321       HGA2
   27    28	 1 ;       CG321      CG321
   27    58	 1 ;       CG321       HGA2
   27    59	 1 ;       CG321       HGA2
   28    60	 1 ;       CG321       HGA2
   28    61	 1 ;       CG321       HGA2
   29    34	 1 ;      CG2R61     CG2R61
   29    30	 1 ;      CG2R61     CG2R61
   30    31	 1 ;      CG2R61     CG2R61
   30    62	 1 ;      CG2R61      HGR61
   31    32	 1 ;      CG2R61     CG2R61
   31    35	 1 ;      CG2R61     CG3C51
   32    33	 1 ;      CG2R61     CG2R61
   32    63	 1 ;      CG2R61      HGR61
   33    34	 1 ;      CG2R61     CG2R61
   33    64	 1 ;      CG2R61      HGR61
   34    65	 1 ;      CG2R61      HGR61
   35    39	 1 ;      CG3C51     CG3C52
   35    36	 1 ;      CG3C51     CG3C52
   35    66	 1 ;      CG3C51       HGA1
   36    37	 1 ;      CG3C52     CG3C52
   36    67	 1 ;      CG3C52       HGA2
   36    68	 1 ;      CG3C52       HGA2
   37    38	 1 ;      CG3C52     CG3C52
   37    69	 1 ;      CG3C52       HGA2
   37    70	 1 ;      CG3C52       HGA2
   38    39	 1 ;      CG3C52     CG3C52
   38    71	 1 ;      CG3C52       HGA2
   38    72	 1 ;      CG3C52       HGA2
   39    73	 1 ;      CG3C52       HGA2
   39    74	 1 ;      CG3C52       HGA2

[ pairs ]
;	ai	  aj funct			  c0			c1			  c2			c3
    1     8	 1
    1     6	 1
    1    42	 1
    1    34	 1
    1    30	 1
    1    25	 1
    1    52	 1
    1    53	 1
    1    27	 1
    1    60	 1
    1    61	 1
    2     5	 1
    2    40	 1
    2    41	 1
    2    29	 1
    2    24	 1
    2    28	 1
    3     5	 1
    3    40	 1
    3    41	 1
    3    29	 1
    3    24	 1
    3    28	 1
    4    29	 1
    4    24	 1
    4    28	 1
    4    18	 1
    4     9	 1
    4    43	 1
    4     7	 1
    5    23	 1
    5    22	 1
    5    19	 1
    5    10	 1
    5    44	 1
    5    45	 1
    6    40	 1
    6    41	 1
    6    18	 1
    6     9	 1
    6    43	 1
    7     8	 1
    7    42	 1
    8    40	 1
    8    41	 1
    8    16	 1
    8    11	 1
    8    21	 1
    8    20	 1
    9    42	 1
    9    22	 1
    9    19	 1
    9    15	 1
    9    48	 1
    9    12	 1
    9    46	 1
   10    18	 1
   10    43	 1
   10    14	 1
   10    13	 1
   10    17	 1
   11    44	 1
   11    45	 1
   11    15	 1
   11    48	 1
   11    47	 1
   12    16	 1
   12    17	 1
   13    46	 1
   13    15	 1
   13    47	 1
   14    46	 1
   14    48	 1
   16    44	 1
   16    45	 1
   16    46	 1
   16    47	 1
   17    47	 1
   17    48	 1
   18    42	 1
   18    44	 1
   18    45	 1
   18    49	 1
   18    50	 1
   18    51	 1
   19    43	 1
   20    22	 1
   20    49	 1
   20    50	 1
   20    51	 1
   21    22	 1
   22    43	 1
   23    40	 1
   23    41	 1
   23    26	 1
   23    54	 1
   23    55	 1
   23    58	 1
   23    59	 1
   23    33	 1
   23    65	 1
   23    31	 1
   23    62	 1
   24    34	 1
   24    30	 1
   24    27	 1
   24    60	 1
   24    61	 1
   24    56	 1
   24    57	 1
   25    29	 1
   25    28	 1
   25    58	 1
   25    59	 1
   26    52	 1
   26    53	 1
   26    60	 1
   26    61	 1
   27    29	 1
   27    54	 1
   27    55	 1
   28    34	 1
   28    30	 1
   28    52	 1
   28    53	 1
   28    56	 1
   28    57	 1
   29    52	 1
   29    53	 1
   29    60	 1
   29    61	 1
   29    32	 1
   29    35	 1
   29    64	 1
   30    33	 1
   30    65	 1
   30    63	 1
   30    39	 1
   30    36	 1
   30    66	 1
   31    34	 1
   31    64	 1
   31    38	 1
   31    73	 1
   31    74	 1
   31    37	 1
   31    67	 1
   31    68	 1
   32    62	 1
   32    39	 1
   32    36	 1
   32    66	 1
   32    65	 1
   33    35	 1
   34    62	 1
   34    63	 1
   35    62	 1
   35    63	 1
   35    69	 1
   35    70	 1
   35    71	 1
   35    72	 1
   36    73	 1
   36    74	 1
   36    71	 1
   36    72	 1
   37    66	 1
   37    73	 1
   37    74	 1
   38    66	 1
   38    67	 1
   38    68	 1
   39    67	 1
   39    68	 1
   39    69	 1
   39    70	 1
   40    42	 1
   41    42	 1
   42    43	 1
   43    44	 1
   43    45	 1
   52    54	 1
   52    55	 1
   53    54	 1
   53    55	 1
   54    56	 1
   54    57	 1
   55    56	 1
   55    57	 1
   56    58	 1
   56    59	 1
   57    58	 1
   57    59	 1
   58    60	 1
   58    61	 1
   59    60	 1
   59    61	 1
   63    64	 1
   64    65	 1
   66    73	 1
   66    74	 1
   66    67	 1
   66    68	 1
   67    69	 1
   67    70	 1
   68    69	 1
   68    70	 1
   69    71	 1
   69    72	 1
   70    71	 1
   70    72	 1
   71    73	 1
   71    74	 1
   72    73	 1
   72    74	 1

[ angles ]
;	ai	  aj	ak funct			c0			  c1			c2			  c3
    3     1     4	5 ;       HGP2      NG3P2      CG324
    3     1     2	5 ;       HGP2      NG3P2       HGP2
    3     1    23	5 ;       HGP2      NG3P2      CG301
    4     1     2	5 ;      CG324      NG3P2       HGP2
    4     1    23	5 ;      CG324      NG3P2      CG301
    2     1    23	5 ;       HGP2      NG3P2      CG301
    5     4     1	5 ;      CG311      CG324      NG3P2
    5     4    40	5 ;      CG311      CG324       HGA2
    5     4    41	5 ;      CG311      CG324       HGA2
    1     4    40	5 ;      NG3P2      CG324       HGA2
    1     4    41	5 ;      NG3P2      CG324       HGA2
   40     4    41	5 ;       HGA2      CG324       HGA2
    8     5     6	5 ;      CG311      CG311      OG311
    8     5     4	5 ;      CG311      CG311      CG324
    8     5    42	5 ;      CG311      CG311       HGA1
    6     5     4	5 ;      OG311      CG311      CG324
    6     5    42	5 ;      OG311      CG311       HGA1
    4     5    42	5 ;      CG324      CG311       HGA1
    5     6     7	5 ;      CG311      OG311       HGP1
   18     8     9	5 ;      NG2S1      CG311      CG321
   18     8     5	5 ;      NG2S1      CG311      CG311
   18     8    43	5 ;      NG2S1      CG311       HGA1
    9     8     5	5 ;      CG321      CG311      CG311
    9     8    43	5 ;      CG321      CG311       HGA1
    5     8    43	5 ;      CG311      CG311       HGA1
   10     9     8	5 ;     CG2R61      CG321      CG311
   10     9    44	5 ;     CG2R61      CG321       HGA2
   10     9    45	5 ;     CG2R61      CG321       HGA2
    8     9    44	5 ;      CG311      CG321       HGA2
    8     9    45	5 ;      CG311      CG321       HGA2
   44     9    45	5 ;       HGA2      CG321       HGA2
   16    10    11	5 ;     CG2R61     CG2R61     CG2R61
   16    10     9	5 ;     CG2R61     CG2R61      CG321
   11    10     9	5 ;     CG2R61     CG2R61      CG321
   12    11    10	5 ;     CG2R66     CG2R61     CG2R61
   12    11    46	5 ;     CG2R66     CG2R61      HGR62
   10    11    46	5 ;     CG2R61     CG2R61      HGR62
   14    12    13	5 ;     CG2R61     CG2R66       FGR1
   14    12    11	5 ;     CG2R61     CG2R66     CG2R61
   13    12    11	5 ;       FGR1     CG2R66     CG2R61
   15    14    12	5 ;     CG2R66     CG2R61     CG2R66
   15    14    47	5 ;     CG2R66     CG2R61      HGR62
   12    14    47	5 ;     CG2R66     CG2R61      HGR62
   17    15    14	5 ;       FGR1     CG2R66     CG2R61
   17    15    16	5 ;       FGR1     CG2R66     CG2R61
   14    15    16	5 ;     CG2R61     CG2R66     CG2R61
   15    16    10	5 ;     CG2R66     CG2R61     CG2R61
   15    16    48	5 ;     CG2R66     CG2R61      HGR62
   10    16    48	5 ;     CG2R61     CG2R61      HGR62
   22    18    19	5 ;       HGP1      NG2S1      CG2O1
   22    18     8	5 ;       HGP1      NG2S1      CG311
   19    18     8	5 ;      CG2O1      NG2S1      CG311
   21    19    18	5 ;      CG331      CG2O1      NG2S1
   21    19    20	5 ;      CG331      CG2O1      OG2D1
   18    19    20	5 ;      NG2S1      CG2O1      OG2D1
   19    21    49	5 ;      CG2O1      CG331       HGA3
   19    21    50	5 ;      CG2O1      CG331       HGA3
   19    21    51	5 ;      CG2O1      CG331       HGA3
   49    21    50	5 ;       HGA3      CG331       HGA3
   49    21    51	5 ;       HGA3      CG331       HGA3
   50    21    51	5 ;       HGA3      CG331       HGA3
   29    23     1	5 ;     CG2R61      CG301      NG3P2
   29    23    24	5 ;     CG2R61      CG301      CG321
   29    23    28	5 ;     CG2R61      CG301      CG321
    1    23    24	5 ;      NG3P2      CG301      CG321
    1    23    28	5 ;      NG3P2      CG301      CG321
   24    23    28	5 ;      CG321      CG301      CG321
   23    24    25	5 ;      CG301      CG321      CG321
   23    24    52	5 ;      CG301      CG321       HGA2
   23    24    53	5 ;      CG301      CG321       HGA2
   25    24    52	5 ;      CG321      CG321       HGA2
   25    24    53	5 ;      CG321      CG321       HGA2
   52    24    53	5 ;       HGA2      CG321       HGA2
   24    25    26	5 ;      CG321      CG321      CG321
   24    25    54	5 ;      CG321      CG321       HGA2
   24    25    55	5 ;      CG321      CG321       HGA2
   26    25    54	5 ;      CG321      CG321       HGA2
   26    25    55	5 ;      CG321      CG321       HGA2
   54    25    55	5 ;       HGA2      CG321       HGA2
   25    26    27	5 ;      CG321      CG321      CG321
   25    26    56	5 ;      CG321      CG321       HGA2
   25    26    57	5 ;      CG321      CG321       HGA2
   27    26    56	5 ;      CG321      CG321       HGA2
   27    26    57	5 ;      CG321      CG321       HGA2
   56    26    57	5 ;       HGA2      CG321       HGA2
   28    27    26	5 ;      CG321      CG321      CG321
   28    27    58	5 ;      CG321      CG321       HGA2
   28    27    59	5 ;      CG321      CG321       HGA2
   26    27    58	5 ;      CG321      CG321       HGA2
   26    27    59	5 ;      CG321      CG321       HGA2
   58    27    59	5 ;       HGA2      CG321       HGA2
   23    28    27	5 ;      CG301      CG321      CG321
   23    28    60	5 ;      CG301      CG321       HGA2
   23    28    61	5 ;      CG301      CG321       HGA2
   27    28    60	5 ;      CG321      CG321       HGA2
   27    28    61	5 ;      CG321      CG321       HGA2
   60    28    61	5 ;       HGA2      CG321       HGA2
   34    29    30	5 ;     CG2R61     CG2R61     CG2R61
   34    29    23	5 ;     CG2R61     CG2R61      CG301
   30    29    23	5 ;     CG2R61     CG2R61      CG301
   31    30    29	5 ;     CG2R61     CG2R61     CG2R61
   31    30    62	5 ;     CG2R61     CG2R61      HGR61
   29    30    62	5 ;     CG2R61     CG2R61      HGR61
   32    31    35	5 ;     CG2R61     CG2R61     CG3C51
   32    31    30	5 ;     CG2R61     CG2R61     CG2R61
   35    31    30	5 ;     CG3C51     CG2R61     CG2R61
   33    32    31	5 ;     CG2R61     CG2R61     CG2R61
   33    32    63	5 ;     CG2R61     CG2R61      HGR61
   31    32    63	5 ;     CG2R61     CG2R61      HGR61
   32    33    34	5 ;     CG2R61     CG2R61     CG2R61
   32    33    64	5 ;     CG2R61     CG2R61      HGR61
   34    33    64	5 ;     CG2R61     CG2R61      HGR61
   33    34    29	5 ;     CG2R61     CG2R61     CG2R61
   33    34    65	5 ;     CG2R61     CG2R61      HGR61
   29    34    65	5 ;     CG2R61     CG2R61      HGR61
   39    35    36	5 ;     CG3C52     CG3C51     CG3C52
   39    35    31	5 ;     CG3C52     CG3C51     CG2R61
   39    35    66	5 ;     CG3C52     CG3C51       HGA1
   36    35    31	5 ;     CG3C52     CG3C51     CG2R61
   36    35    66	5 ;     CG3C52     CG3C51       HGA1
   31    35    66	5 ;     CG2R61     CG3C51       HGA1
   37    36    35	5 ;     CG3C52     CG3C52     CG3C51
   37    36    67	5 ;     CG3C52     CG3C52       HGA2
   37    36    68	5 ;     CG3C52     CG3C52       HGA2
   35    36    67	5 ;     CG3C51     CG3C52       HGA2
   35    36    68	5 ;     CG3C51     CG3C52       HGA2
   67    36    68	5 ;       HGA2     CG3C52       HGA2
   38    37    36	5 ;     CG3C52     CG3C52     CG3C52
   38    37    69	5 ;     CG3C52     CG3C52       HGA2
   38    37    70	5 ;     CG3C52     CG3C52       HGA2
   36    37    69	5 ;     CG3C52     CG3C52       HGA2
   36    37    70	5 ;     CG3C52     CG3C52       HGA2
   69    37    70	5 ;       HGA2     CG3C52       HGA2
   39    38    37	5 ;     CG3C52     CG3C52     CG3C52
   39    38    71	5 ;     CG3C52     CG3C52       HGA2
   39    38    72	5 ;     CG3C52     CG3C52       HGA2
   37    38    71	5 ;     CG3C52     CG3C52       HGA2
   37    38    72	5 ;     CG3C52     CG3C52       HGA2
   71    38    72	5 ;       HGA2     CG3C52       HGA2
   38    39    35	5 ;     CG3C52     CG3C52     CG3C51
   38    39    73	5 ;     CG3C52     CG3C52       HGA2
   38    39    74	5 ;     CG3C52     CG3C52       HGA2
   35    39    73	5 ;     CG3C51     CG3C52       HGA2
   35    39    74	5 ;     CG3C51     CG3C52       HGA2
   73    39    74	5 ;       HGA2     CG3C52       HGA2

[ dihedrals ]
;	ai	  aj	ak	  al funct			  c0			c1			  c2			c3			  c4			c5
    3     1     4     5	 9 ;       HGP2      NG3P2      CG324      CG311
    3     1     4    40	 9 ;       HGP2      NG3P2      CG324       HGA2
    3     1     4    41	 9 ;       HGP2      NG3P2      CG324       HGA2
    2     1     4     5	 9 ;       HGP2      NG3P2      CG324      CG311
    2     1     4    40	 9 ;       HGP2      NG3P2      CG324       HGA2
    2     1     4    41	 9 ;       HGP2      NG3P2      CG324       HGA2
   23     1     4     5	 9 ;      CG301      NG3P2      CG324      CG311
   23     1     4    40	 9 ;      CG301      NG3P2      CG324       HGA2
   23     1     4    41	 9 ;      CG301      NG3P2      CG324       HGA2
    3     1    23    29	 9 ;       HGP2      NG3P2      CG301     CG2R61
    3     1    23    24	 9 ;       HGP2      NG3P2      CG301      CG321
    3     1    23    28	 9 ;       HGP2      NG3P2      CG301      CG321
    4     1    23    29	 9 ;      CG324      NG3P2      CG301     CG2R61
    4     1    23    24	 9 ;      CG324      NG3P2      CG301      CG321
    4     1    23    28	 9 ;      CG324      NG3P2      CG301      CG321
    2     1    23    29	 9 ;       HGP2      NG3P2      CG301     CG2R61
    2     1    23    24	 9 ;       HGP2      NG3P2      CG301      CG321
    2     1    23    28	 9 ;       HGP2      NG3P2      CG301      CG321
    1     4     5     8	 9 ;      NG3P2      CG324      CG311      CG311
    1     4     5     6	 9 ;      NG3P2      CG324      CG311      OG311
    1     4     5    42	 9 ;      NG3P2      CG324      CG311       HGA1
   40     4     5     8	 9 ;       HGA2      CG324      CG311      CG311
   40     4     5     6	 9 ;       HGA2      CG324      CG311      OG311
   40     4     5    42	 9 ;       HGA2      CG324      CG311       HGA1
   41     4     5     8	 9 ;       HGA2      CG324      CG311      CG311
   41     4     5     6	 9 ;       HGA2      CG324      CG311      OG311
   41     4     5    42	 9 ;       HGA2      CG324      CG311       HGA1
    6     5     8    18	 9 ;      OG311      CG311      CG311      NG2S1
    6     5     8     9	 9 ;      OG311      CG311      CG311      CG321
    6     5     8    43	 9 ;      OG311      CG311      CG311       HGA1
    4     5     8    18	 9 ;      CG324      CG311      CG311      NG2S1
    4     5     8     9	 9 ;      CG324      CG311      CG311      CG321
    4     5     8    43	 9 ;      CG324      CG311      CG311       HGA1
   42     5     8    18	 9 ;       HGA1      CG311      CG311      NG2S1
   42     5     8     9	 9 ;       HGA1      CG311      CG311      CG321
   42     5     8    43	 9 ;       HGA1      CG311      CG311       HGA1
    8     5     6     7	 9 ;      CG311      CG311      OG311       HGP1
    4     5     6     7	 9 ;      CG324      CG311      OG311       HGP1
   42     5     6     7	 9 ;       HGA1      CG311      OG311       HGP1
    9     8    18    22	 9 ;      CG321      CG311      NG2S1       HGP1
    9     8    18    19	 9 ;      CG321      CG311      NG2S1      CG2O1
    5     8    18    22	 9 ;      CG311      CG311      NG2S1       HGP1
    5     8    18    19	 9 ;      CG311      CG311      NG2S1      CG2O1
   43     8    18    22	 9 ;       HGA1      CG311      NG2S1       HGP1
   43     8    18    19	 9 ;       HGA1      CG311      NG2S1      CG2O1
   18     8     9    10	 9 ;      NG2S1      CG311      CG321     CG2R61
   18     8     9    44	 9 ;      NG2S1      CG311      CG321       HGA2
   18     8     9    45	 9 ;      NG2S1      CG311      CG321       HGA2
    5     8     9    10	 9 ;      CG311      CG311      CG321     CG2R61
    5     8     9    44	 9 ;      CG311      CG311      CG321       HGA2
    5     8     9    45	 9 ;      CG311      CG311      CG321       HGA2
   43     8     9    10	 9 ;       HGA1      CG311      CG321     CG2R61
   43     8     9    44	 9 ;       HGA1      CG311      CG321       HGA2
   43     8     9    45	 9 ;       HGA1      CG311      CG321       HGA2
    8     9    10    16	 9 ;      CG311      CG321     CG2R61     CG2R61
    8     9    10    11	 9 ;      CG311      CG321     CG2R61     CG2R61
   44     9    10    16	 9 ;       HGA2      CG321     CG2R61     CG2R61
   44     9    10    11	 9 ;       HGA2      CG321     CG2R61     CG2R61
   45     9    10    16	 9 ;       HGA2      CG321     CG2R61     CG2R61
   45     9    10    11	 9 ;       HGA2      CG321     CG2R61     CG2R61
   11    10    16    15	 9 ;     CG2R61     CG2R61     CG2R61     CG2R66
   11    10    16    48	 9 ;     CG2R61     CG2R61     CG2R61      HGR62
    9    10    16    15	 9 ;      CG321     CG2R61     CG2R61     CG2R66
    9    10    16    48	 9 ;      CG321     CG2R61     CG2R61      HGR62
   16    10    11    12	 9 ;     CG2R61     CG2R61     CG2R61     CG2R66
   16    10    11    46	 9 ;     CG2R61     CG2R61     CG2R61      HGR62
    9    10    11    12	 9 ;      CG321     CG2R61     CG2R61     CG2R66
    9    10    11    46	 9 ;      CG321     CG2R61     CG2R61      HGR62
   10    11    12    14	 9 ;     CG2R61     CG2R61     CG2R66     CG2R61
   10    11    12    13	 9 ;     CG2R61     CG2R61     CG2R66       FGR1
   46    11    12    14	 9 ;      HGR62     CG2R61     CG2R66     CG2R61
   46    11    12    13	 9 ;      HGR62     CG2R61     CG2R66       FGR1
   13    12    14    15	 9 ;       FGR1     CG2R66     CG2R61     CG2R66
   13    12    14    47	 9 ;       FGR1     CG2R66     CG2R61      HGR62
   11    12    14    15	 9 ;     CG2R61     CG2R66     CG2R61     CG2R66
   11    12    14    47	 9 ;     CG2R61     CG2R66     CG2R61      HGR62
   12    14    15    17	 9 ;     CG2R66     CG2R61     CG2R66       FGR1
   12    14    15    16	 9 ;     CG2R66     CG2R61     CG2R66     CG2R61
   47    14    15    17	 9 ;      HGR62     CG2R61     CG2R66       FGR1
   47    14    15    16	 9 ;      HGR62     CG2R61     CG2R66     CG2R61
   17    15    16    10	 9 ;       FGR1     CG2R66     CG2R61     CG2R61
   17    15    16    48	 9 ;       FGR1     CG2R66     CG2R61      HGR62
   14    15    16    10	 9 ;     CG2R61     CG2R66     CG2R61     CG2R61
   14    15    16    48	 9 ;     CG2R61     CG2R66     CG2R61      HGR62
   22    18    19    21	 9 ;       HGP1      NG2S1      CG2O1      CG331
   22    18    19    20	 9 ;       HGP1      NG2S1      CG2O1      OG2D1
    8    18    19    21	 9 ;      CG311      NG2S1      CG2O1      CG331
    8    18    19    20	 9 ;      CG311      NG2S1      CG2O1      OG2D1
   18    19    21    49	 9 ;      NG2S1      CG2O1      CG331       HGA3
   18    19    21    50	 9 ;      NG2S1      CG2O1      CG331       HGA3
   18    19    21    51	 9 ;      NG2S1      CG2O1      CG331       HGA3
   20    19    21    49	 9 ;      OG2D1      CG2O1      CG331       HGA3
   20    19    21    50	 9 ;      OG2D1      CG2O1      CG331       HGA3
   20    19    21    51	 9 ;      OG2D1      CG2O1      CG331       HGA3
    1    23    29    34	 9 ;      NG3P2      CG301     CG2R61     CG2R61
    1    23    29    30	 9 ;      NG3P2      CG301     CG2R61     CG2R61
   24    23    29    34	 9 ;      CG321      CG301     CG2R61     CG2R61
   24    23    29    30	 9 ;      CG321      CG301     CG2R61     CG2R61
   28    23    29    34	 9 ;      CG321      CG301     CG2R61     CG2R61
   28    23    29    30	 9 ;      CG321      CG301     CG2R61     CG2R61
   29    23    24    25	 9 ;     CG2R61      CG301      CG321      CG321
   29    23    24    52	 9 ;     CG2R61      CG301      CG321       HGA2
   29    23    24    53	 9 ;     CG2R61      CG301      CG321       HGA2
    1    23    24    25	 9 ;      NG3P2      CG301      CG321      CG321
    1    23    24    52	 9 ;      NG3P2      CG301      CG321       HGA2
    1    23    24    53	 9 ;      NG3P2      CG301      CG321       HGA2
   28    23    24    25	 9 ;      CG321      CG301      CG321      CG321
   28    23    24    52	 9 ;      CG321      CG301      CG321       HGA2
   28    23    24    53	 9 ;      CG321      CG301      CG321       HGA2
   29    23    28    27	 9 ;     CG2R61      CG301      CG321      CG321
   29    23    28    60	 9 ;     CG2R61      CG301      CG321       HGA2
   29    23    28    61	 9 ;     CG2R61      CG301      CG321       HGA2
    1    23    28    27	 9 ;      NG3P2      CG301      CG321      CG321
    1    23    28    60	 9 ;      NG3P2      CG301      CG321       HGA2
    1    23    28    61	 9 ;      NG3P2      CG301      CG321       HGA2
   24    23    28    27	 9 ;      CG321      CG301      CG321      CG321
   24    23    28    60	 9 ;      CG321      CG301      CG321       HGA2
   24    23    28    61	 9 ;      CG321      CG301      CG321       HGA2
   23    24    25    26	 9 ;      CG301      CG321      CG321      CG321
   23    24    25    54	 9 ;      CG301      CG321      CG321       HGA2
   23    24    25    55	 9 ;      CG301      CG321      CG321       HGA2
   52    24    25    26	 9 ;       HGA2      CG321      CG321      CG321
   52    24    25    54	 9 ;       HGA2      CG321      CG321       HGA2
   52    24    25    55	 9 ;       HGA2      CG321      CG321       HGA2
   53    24    25    26	 9 ;       HGA2      CG321      CG321      CG321
   53    24    25    54	 9 ;       HGA2      CG321      CG321       HGA2
   53    24    25    55	 9 ;       HGA2      CG321      CG321       HGA2
   24    25    26    27	 9 ;      CG321      CG321      CG321      CG321
   24    25    26    56	 9 ;      CG321      CG321      CG321       HGA2
   24    25    26    57	 9 ;      CG321      CG321      CG321       HGA2
   54    25    26    27	 9 ;       HGA2      CG321      CG321      CG321
   54    25    26    56	 9 ;       HGA2      CG321      CG321       HGA2
   54    25    26    57	 9 ;       HGA2      CG321      CG321       HGA2
   55    25    26    27	 9 ;       HGA2      CG321      CG321      CG321
   55    25    26    56	 9 ;       HGA2      CG321      CG321       HGA2
   55    25    26    57	 9 ;       HGA2      CG321      CG321       HGA2
   25    26    27    28	 9 ;      CG321      CG321      CG321      CG321
   25    26    27    58	 9 ;      CG321      CG321      CG321       HGA2
   25    26    27    59	 9 ;      CG321      CG321      CG321       HGA2
   56    26    27    28	 9 ;       HGA2      CG321      CG321      CG321
   56    26    27    58	 9 ;       HGA2      CG321      CG321       HGA2
   56    26    27    59	 9 ;       HGA2      CG321      CG321       HGA2
   57    26    27    28	 9 ;       HGA2      CG321      CG321      CG321
   57    26    27    58	 9 ;       HGA2      CG321      CG321       HGA2
   57    26    27    59	 9 ;       HGA2      CG321      CG321       HGA2
   26    27    28    23	 9 ;      CG321      CG321      CG321      CG301
   26    27    28    60	 9 ;      CG321      CG321      CG321       HGA2
   26    27    28    61	 9 ;      CG321      CG321      CG321       HGA2
   58    27    28    23	 9 ;       HGA2      CG321      CG321      CG301
   58    27    28    60	 9 ;       HGA2      CG321      CG321       HGA2
   58    27    28    61	 9 ;       HGA2      CG321      CG321       HGA2
   59    27    28    23	 9 ;       HGA2      CG321      CG321      CG301
   59    27    28    60	 9 ;       HGA2      CG321      CG321       HGA2
   59    27    28    61	 9 ;       HGA2      CG321      CG321       HGA2
   30    29    34    33	 9 ;     CG2R61     CG2R61     CG2R61     CG2R61
   30    29    34    65	 9 ;     CG2R61     CG2R61     CG2R61      HGR61
   23    29    34    33	 9 ;      CG301     CG2R61     CG2R61     CG2R61
   23    29    34    65	 9 ;      CG301     CG2R61     CG2R61      HGR61
   34    29    30    31	 9 ;     CG2R61     CG2R61     CG2R61     CG2R61
   34    29    30    62	 9 ;     CG2R61     CG2R61     CG2R61      HGR61
   23    29    30    31	 9 ;      CG301     CG2R61     CG2R61     CG2R61
   23    29    30    62	 9 ;      CG301     CG2R61     CG2R61      HGR61
   29    30    31    32	 9 ;     CG2R61     CG2R61     CG2R61     CG2R61
   29    30    31    35	 9 ;     CG2R61     CG2R61     CG2R61     CG3C51
   62    30    31    32	 9 ;      HGR61     CG2R61     CG2R61     CG2R61
   62    30    31    35	 9 ;      HGR61     CG2R61     CG2R61     CG3C51
   35    31    32    33	 9 ;     CG3C51     CG2R61     CG2R61     CG2R61
   35    31    32    63	 9 ;     CG3C51     CG2R61     CG2R61      HGR61
   30    31    32    33	 9 ;     CG2R61     CG2R61     CG2R61     CG2R61
   30    31    32    63	 9 ;     CG2R61     CG2R61     CG2R61      HGR61
   32    31    35    39	 9 ;     CG2R61     CG2R61     CG3C51     CG3C52
   32    31    35    36	 9 ;     CG2R61     CG2R61     CG3C51     CG3C52
   32    31    35    66	 9 ;     CG2R61     CG2R61     CG3C51       HGA1
   30    31    35    39	 9 ;     CG2R61     CG2R61     CG3C51     CG3C52
   30    31    35    36	 9 ;     CG2R61     CG2R61     CG3C51     CG3C52
   30    31    35    66	 9 ;     CG2R61     CG2R61     CG3C51       HGA1
   31    32    33    34	 9 ;     CG2R61     CG2R61     CG2R61     CG2R61
   31    32    33    64	 9 ;     CG2R61     CG2R61     CG2R61      HGR61
   63    32    33    34	 9 ;      HGR61     CG2R61     CG2R61     CG2R61
   63    32    33    64	 9 ;      HGR61     CG2R61     CG2R61      HGR61
   32    33    34    29	 9 ;     CG2R61     CG2R61     CG2R61     CG2R61
   32    33    34    65	 9 ;     CG2R61     CG2R61     CG2R61      HGR61
   64    33    34    29	 9 ;      HGR61     CG2R61     CG2R61     CG2R61
   64    33    34    65	 9 ;      HGR61     CG2R61     CG2R61      HGR61
   36    35    39    38	 9 ;     CG3C52     CG3C51     CG3C52     CG3C52
   36    35    39    73	 9 ;     CG3C52     CG3C51     CG3C52       HGA2
   36    35    39    74	 9 ;     CG3C52     CG3C51     CG3C52       HGA2
   31    35    39    38	 9 ;     CG2R61     CG3C51     CG3C52     CG3C52
   31    35    39    73	 9 ;     CG2R61     CG3C51     CG3C52       HGA2
   31    35    39    74	 9 ;     CG2R61     CG3C51     CG3C52       HGA2
   66    35    39    38	 9 ;       HGA1     CG3C51     CG3C52     CG3C52
   66    35    39    73	 9 ;       HGA1     CG3C51     CG3C52       HGA2
   66    35    39    74	 9 ;       HGA1     CG3C51     CG3C52       HGA2
   39    35    36    37	 9 ;     CG3C52     CG3C51     CG3C52     CG3C52
   39    35    36    67	 9 ;     CG3C52     CG3C51     CG3C52       HGA2
   39    35    36    68	 9 ;     CG3C52     CG3C51     CG3C52       HGA2
   31    35    36    37	 9 ;     CG2R61     CG3C51     CG3C52     CG3C52
   31    35    36    67	 9 ;     CG2R61     CG3C51     CG3C52       HGA2
   31    35    36    68	 9 ;     CG2R61     CG3C51     CG3C52       HGA2
   66    35    36    37	 9 ;       HGA1     CG3C51     CG3C52     CG3C52
   66    35    36    67	 9 ;       HGA1     CG3C51     CG3C52       HGA2
   66    35    36    68	 9 ;       HGA1     CG3C51     CG3C52       HGA2
   35    36    37    38	 9 ;     CG3C51     CG3C52     CG3C52     CG3C52
   35    36    37    69	 9 ;     CG3C51     CG3C52     CG3C52       HGA2
   35    36    37    70	 9 ;     CG3C51     CG3C52     CG3C52       HGA2
   67    36    37    38	 9 ;       HGA2     CG3C52     CG3C52     CG3C52
   67    36    37    69	 9 ;       HGA2     CG3C52     CG3C52       HGA2
   67    36    37    70	 9 ;       HGA2     CG3C52     CG3C52       HGA2
   68    36    37    38	 9 ;       HGA2     CG3C52     CG3C52     CG3C52
   68    36    37    69	 9 ;       HGA2     CG3C52     CG3C52       HGA2
   68    36    37    70	 9 ;       HGA2     CG3C52     CG3C52       HGA2
   36    37    38    39	 9 ;     CG3C52     CG3C52     CG3C52     CG3C52
   36    37    38    71	 9 ;     CG3C52     CG3C52     CG3C52       HGA2
   36    37    38    72	 9 ;     CG3C52     CG3C52     CG3C52       HGA2
   69    37    38    39	 9 ;       HGA2     CG3C52     CG3C52     CG3C52
   69    37    38    71	 9 ;       HGA2     CG3C52     CG3C52       HGA2
   69    37    38    72	 9 ;       HGA2     CG3C52     CG3C52       HGA2
   70    37    38    39	 9 ;       HGA2     CG3C52     CG3C52     CG3C52
   70    37    38    71	 9 ;       HGA2     CG3C52     CG3C52       HGA2
   70    37    38    72	 9 ;       HGA2     CG3C52     CG3C52       HGA2
   37    38    39    35	 9 ;     CG3C52     CG3C52     CG3C52     CG3C51
   37    38    39    73	 9 ;     CG3C52     CG3C52     CG3C52       HGA2
   37    38    39    74	 9 ;     CG3C52     CG3C52     CG3C52       HGA2
   71    38    39    35	 9 ;       HGA2     CG3C52     CG3C52     CG3C51
   71    38    39    73	 9 ;       HGA2     CG3C52     CG3C52       HGA2
   71    38    39    74	 9 ;       HGA2     CG3C52     CG3C52       HGA2
   72    38    39    35	 9 ;       HGA2     CG3C52     CG3C52     CG3C51
   72    38    39    73	 9 ;       HGA2     CG3C52     CG3C52       HGA2
   72    38    39    74	 9 ;       HGA2     CG3C52     CG3C52       HGA2

[ dihedrals ]
;	ai	  aj	ak	  al funct			  c0			c1			  c2			c3
   19    21    18    20	 2

