Georgetown Riga Oslo Madrid Amsterdam Chisinau Stockholm
   74
    1LIG     N1    1  -1.803   0.555  -1.462
    1LIG     H1    2  -1.903   0.584  -1.470
    1LIG     H2    3  -1.770   0.562  -1.559
    1LIG     C1    4  -1.739   0.667  -1.382
    1LIG     C2    5  -1.748   0.794  -1.470
    1LIG     O1    6  -1.778   0.895  -1.373
    1LIG     H3    7  -1.868   0.878  -1.337
    1LIG     C3    8  -1.625   0.827  -1.563
    1LIG     C4    9  -1.564   0.693  -1.615
    1LIG     C5   10  -1.413   0.685  -1.612
    1LIG     C6   11  -1.337   0.773  -1.533
    1LIG     C7   12  -1.198   0.766  -1.535
    1LIG     F1   13  -1.128   0.851  -1.459
    1LIG     C8   14  -1.131   0.673  -1.613
    1LIG     C9   15  -1.206   0.585  -1.690
    1LIG    C10   16  -1.345   0.590  -1.689
    1LIG     F2   17  -1.143   0.494  -1.766
    1LIG     N2   18  -1.660   0.910  -1.683
    1LIG    C11   19  -1.688   1.044  -1.685
    1LIG     O2   20  -1.704   1.111  -1.584
    1LIG    C12   21  -1.699   1.105  -1.823
    1LIG     H4   22  -1.623   0.876  -1.771
    1LIG    C13   23  -1.796   0.408  -1.424
    1LIG    C14   24  -1.923   0.335  -1.475
    1LIG    C15   25  -1.927   0.190  -1.426
    1LIG    C16   26  -1.926   0.182  -1.274
    1LIG    C17   27  -1.811   0.260  -1.211
    1LIG    C18   28  -1.797   0.401  -1.269
    1LIG    C19   29  -1.667   0.351  -1.491
    1LIG    C20   30  -1.540   0.367  -1.430
    1LIG    C21   31  -1.423   0.308  -1.484
    1LIG    C22   32  -1.433   0.237  -1.604
    1LIG    C23   33  -1.556   0.223  -1.667
    1LIG    C24   34  -1.671   0.276  -1.610
    1LIG    C25   35  -1.289   0.310  -1.413
    1LIG    C26   36  -1.253   0.446  -1.355
    1LIG    C27   37  -1.105   0.435  -1.320
    1LIG    C28   38  -1.050   0.319  -1.404
    1LIG    C29   39  -1.165   0.277  -1.496
    1LIG    HC2   40  -1.792   0.682  -1.288
    1LIG    HC3   41  -1.634   0.643  -1.362
    1LIG     HC   42  -1.836   0.784  -1.534
    1LIG    HC1   43  -1.550   0.879  -1.504
    1LIG    HC4   44  -1.596   0.680  -1.719
    1LIG    HC5   45  -1.604   0.611  -1.556
    1LIG    HC6   46  -1.387   0.846  -1.471
    1LIG    HC7   47  -1.023   0.670  -1.615
    1LIG    HC8   48  -1.401   0.519  -1.749
    1LIG    HC9   49  -1.722   1.211  -1.814
    1LIG   HC10   50  -1.779   1.055  -1.878
    1LIG   HC11   51  -1.605   1.092  -1.876
    1LIG   HC12   52  -1.922   0.336  -1.584
    1LIG   HC13   53  -2.011   0.388  -1.439
    1LIG   HC14   54  -2.018   0.143  -1.463
    1LIG   HC15   55  -1.841   0.136  -1.465
    1LIG   HC16   56  -1.918   0.078  -1.244
    1LIG   HC17   57  -2.020   0.222  -1.236
    1LIG   HC18   58  -1.829   0.267  -1.104
    1LIG   HC19   59  -1.718   0.205  -1.228
    1LIG   HC20   60  -1.704   0.444  -1.232
    1LIG   HC21   61  -1.880   0.462  -1.232
    1LIG   HC22   62  -1.532   0.426  -1.340
    1LIG   HC23   63  -1.345   0.193  -1.648
    1LIG   HC24   64  -1.562   0.170  -1.761
    1LIG   HC25   65  -1.766   0.260  -1.659
    1LIG   HC26   66  -1.294   0.238  -1.331
    1LIG   HC27   67  -1.312   0.467  -1.265
    1LIG   HC28   68  -1.269   0.525  -1.429
    1LIG   HC29   69  -1.053   0.528  -1.345
    1LIG   HC30   70  -1.093   0.413  -1.214
    1LIG   HC31   71  -0.965   0.352  -1.463
    1LIG   HC32   72  -1.022   0.237  -1.339
    1LIG   HC33   73  -1.160   0.170  -1.518
    1LIG   HC34   74  -1.163   0.335  -1.588
   0.00000   0.00000   0.00000
