God Rules Over Mankind, Animals, Cosmos and Such
   76
    1LIG     O1    1  -1.062   0.391  -2.005
    1LIG     C1    2  -1.113   0.501  -1.986
    1LIG     N1    3  -1.061   0.582  -1.887
    1LIG     C2    4  -1.087   0.564  -1.742
    1LIG     C3    5  -1.126   0.713  -1.695
    1LIG     C4    6  -1.220   0.756  -1.578
    1LIG     C5    7  -1.368   0.785  -1.625
    1LIG     C6    8  -1.497   0.733  -1.559
    1LIG     C7    9  -1.618   0.746  -1.658
    1LIG     C8   10  -1.711   0.622  -1.669
    1LIG     C9   11  -1.725   0.566  -1.813
    1LIG    C10   12  -1.596   0.506  -1.867
    1LIG    C11   13  -1.597   0.491  -2.019
    1LIG    C12   14  -1.466   0.465  -2.090
    1LIG     O2   15  -1.461   0.458  -2.212
    1LIG     N2   16  -1.352   0.470  -2.013
    1LIG    C13   17  -1.240   0.552  -2.058
    1LIG    C14   18  -1.280   0.698  -2.038
    1LIG    C15   19  -1.183   0.685  -1.448
    1LIG     H1   20  -1.048   0.678  -1.914
    1LIG     H2   21  -1.358   0.452  -1.913
    1LIG    C16   22  -1.186   0.444  -1.704
    1LIG     O3   23  -1.118   0.364  -1.606
    1LIG     H3   24  -1.092   0.423  -1.533
    1LIG    C17   25  -1.337   0.454  -1.645
    1LIG    C18   26  -1.384   0.377  -1.517
    1LIG    C19   27  -1.533   0.343  -1.539
    1LIG    C20   28  -1.314   0.240  -1.467
    1LIG     O4   29  -1.257   0.235  -1.356
    1LIG     N3   30  -1.302   0.130  -1.552
    1LIG     H4   31  -1.334   0.148  -1.646
    1LIG    C21   32  -1.192   0.027  -1.542
    1LIG    C22   33  -1.198  -0.101  -1.453
    1LIG    C23   34  -1.123  -0.097  -1.319
    1LIG    C24   35  -0.990  -0.019  -1.325
    1LIG     HC   36  -0.991   0.541  -1.696
    1LIG    HC2   37  -1.031   0.761  -1.673
    1LIG    HC3   38  -1.165   0.763  -1.784
    1LIG    HC4   39  -1.377   0.894  -1.622
    1LIG    HC5   40  -1.373   0.756  -1.729
    1LIG    HC6   41  -1.518   0.791  -1.469
    1LIG    HC7   42  -1.484   0.628  -1.531
    1LIG    HC8   43  -1.680   0.830  -1.625
    1LIG    HC9   44  -1.579   0.769  -1.757
    1LIG   HC10   45  -1.810   0.649  -1.633
    1LIG   HC11   46  -1.671   0.543  -1.605
    1LIG   HC12   47  -1.802   0.489  -1.813
    1LIG   HC13   48  -1.757   0.647  -1.879
    1LIG   HC14   49  -1.581   0.408  -1.822
    1LIG   HC15   50  -1.512   0.570  -1.839
    1LIG   HC16   51  -1.664   0.408  -2.042
    1LIG   HC17   52  -1.641   0.582  -2.061
    1LIG    HC1   53  -1.226   0.535  -2.165
    1LIG   HC18   54  -1.199   0.763  -2.070
    1LIG   HC19   55  -1.369   0.720  -2.096
    1LIG   HC20   56  -1.300   0.716  -1.932
    1LIG   HC21   57  -1.086   0.640  -1.434
    1LIG   HC22   58  -1.256   0.680  -1.368
    1LIG   HC23   59  -1.193   0.382  -1.793
    1LIG   HC24   60  -1.355   0.560  -1.625
    1LIG   HC25   61  -1.405   0.426  -1.726
    1LIG   HC26   62  -1.379   0.448  -1.434
    1LIG   HC27   63  -1.549   0.237  -1.520
    1LIG   HC28   64  -1.594   0.402  -1.470
    1LIG   HC29   65  -1.561   0.367  -1.641
    1LIG   HC30   66  -1.176  -0.009  -1.644
    1LIG   HC31   67  -1.102   0.081  -1.513
    1LIG   HC32   68  -1.303  -0.121  -1.431
    1LIG   HC33   69  -1.159  -0.185  -1.511
    1LIG   HC34   70  -1.101  -0.200  -1.289
    1LIG   HC35   71  -1.187  -0.051  -1.244
    1LIG   HC36   72  -0.928  -0.047  -1.240
    1LIG   HC37   73  -0.938  -0.043  -1.417
    1LIG   HC38   74  -1.011   0.088  -1.321
    1LIG    H44   75  -1.184   0.857  -1.558
    1LIG    H45   76  -1.221   0.591  -1.489
   0.00000   0.00000   0.00000
