; Created by cgenff_charmm2gmx.py

[ moleculetype ]
; Name			   nrexcl
LIG				 3

[ atoms ]
;	 nr		  type	resnr residue  atom   cgnr	   charge		mass  typeB    chargeB		massB
; residue	 1 LIG rtp LIG q	qsum
     1      OG2D1      1    LIG     O1      1     -0.511     15.999   ;
     2      CG2O1      1    LIG     C1      2      0.507     12.011   ;
     3      NG2S1      1    LIG     N1      3     -0.387     14.007   ;
     4      CG311      1    LIG     C2      4     -0.048     12.011   ;
     5      CG321      1    LIG     C3      5     -0.102     12.011   ;
     6      CG311      1    LIG     C4      6     -0.104     12.011   ;
     7      CG321      1    LIG     C5      7     -0.174     12.011   ;
     8      CG321      1    LIG     C6      8     -0.193     12.011   ;
     9      CG321      1    LIG     C7      9     -0.167     12.011   ;
    10      CG321      1    LIG     C8     10     -0.180     12.011   ;
    11      CG321      1    LIG     C9     11     -0.144     12.011   ;
    12      CG321      1    LIG    C10     12     -0.166     12.011   ;
    13      CG321      1    LIG    C11     13     -0.204     12.011   ;
    14      CG2O1      1    LIG    C12     14      0.501     12.011   ;
    15      OG2D1      1    LIG     O2     15     -0.517     15.999   ;
    16      NG2S1      1    LIG     N2     16     -0.502     14.007   ;
    17      CG311      1    LIG    C13     17      0.077     12.011   ;
    18      CG331      1    LIG    C14     18     -0.270     12.011   ;
    19      CG331      1    LIG    C15     19     -0.270     12.011   ;
    20       HGP1      1    LIG     H1     20      0.269      1.008   ;
    21       HGP1      1    LIG     H2     21      0.328      1.008   ;
    22      CG311      1    LIG    C16     22      0.119     12.011   ;
    23      OG311      1    LIG     O3     23     -0.648     15.999   ;
    24       HGP1      1    LIG     H3     24      0.421      1.008   ;
    25      CG321      1    LIG    C17     25     -0.187     12.011   ;
    26      CG311      1    LIG    C18     26     -0.033     12.011   ;
    27      CG331      1    LIG    C19     27     -0.266     12.011   ;
    28      CG2O1      1    LIG    C20     28      0.492     12.011   ;
    29      OG2D1      1    LIG     O4     29     -0.514     15.999   ;
    30      NG2S1      1    LIG     N3     30     -0.457     14.007   ;
    31       HGP1      1    LIG     H4     31      0.305      1.008   ;
    32      CG321      1    LIG    C21     32     -0.033     12.011   ;
    33      CG321      1    LIG    C22     33     -0.184     12.011   ;
    34      CG321      1    LIG    C23     34     -0.178     12.011   ;
    35      CG331      1    LIG    C24     35     -0.270     12.011   ;
    36       HGA1      1    LIG     HC     36      0.090      1.008   ;
    37       HGA2      1    LIG    HC2     37      0.090      1.008   ;
    38       HGA2      1    LIG    HC3     38      0.090      1.008   ;
    39       HGA2      1    LIG    HC4     39      0.090      1.008   ;
    40       HGA2      1    LIG    HC5     40      0.090      1.008   ;
    41       HGA2      1    LIG    HC6     41      0.090      1.008   ;
    42       HGA2      1    LIG    HC7     42      0.090      1.008   ;
    43       HGA2      1    LIG    HC8     43      0.090      1.008   ;
    44       HGA2      1    LIG    HC9     44      0.090      1.008   ;
    45       HGA2      1    LIG   HC10     45      0.090      1.008   ;
    46       HGA2      1    LIG   HC11     46      0.090      1.008   ;
    47       HGA2      1    LIG   HC12     47      0.090      1.008   ;
    48       HGA2      1    LIG   HC13     48      0.090      1.008   ;
    49       HGA2      1    LIG   HC14     49      0.090      1.008   ;
    50       HGA2      1    LIG   HC15     50      0.090      1.008   ;
    51       HGA2      1    LIG   HC16     51      0.090      1.008   ;
    52       HGA2      1    LIG   HC17     52      0.090      1.008   ;
    53       HGA1      1    LIG    HC1     53      0.090      1.008   ;
    54       HGA3      1    LIG   HC18     54      0.090      1.008   ;
    55       HGA3      1    LIG   HC19     55      0.090      1.008   ;
    56       HGA3      1    LIG   HC20     56      0.090      1.008   ;
    57       HGA3      1    LIG   HC21     57      0.090      1.008   ;
    58       HGA3      1    LIG   HC22     58      0.090      1.008   ;
    59       HGA1      1    LIG   HC23     59      0.090      1.008   ;
    60       HGA2      1    LIG   HC24     60      0.090      1.008   ;
    61       HGA2      1    LIG   HC25     61      0.090      1.008   ;
    62       HGA1      1    LIG   HC26     62      0.090      1.008   ;
    63       HGA3      1    LIG   HC27     63      0.090      1.008   ;
    64       HGA3      1    LIG   HC28     64      0.090      1.008   ;
    65       HGA3      1    LIG   HC29     65      0.090      1.008   ;
    66       HGA2      1    LIG   HC30     66      0.090      1.008   ;
    67       HGA2      1    LIG   HC31     67      0.090      1.008   ;
    68       HGA2      1    LIG   HC32     68      0.090      1.008   ;
    69       HGA2      1    LIG   HC33     69      0.090      1.008   ;
    70       HGA2      1    LIG   HC34     70      0.090      1.008   ;
    71       HGA2      1    LIG   HC35     71      0.090      1.008   ;
    72       HGA3      1    LIG   HC36     72      0.090      1.008   ;
    73       HGA3      1    LIG   HC37     73      0.090      1.008   ;
    74       HGA3      1    LIG   HC38     74      0.090      1.008   ;
    75       HGA1      1    LIG    H44     75      0.090      1.008   ;
    76       HGA3      1    LIG    H45     76      0.090      1.008   ;

[ bonds ]
;	ai	  aj funct			  c0			c1			  c2			c3
    1     2	 1 ;       OG2D1      CG2O1
    2     3	 1 ;       CG2O1      NG2S1
    2    17	 1 ;       CG2O1      CG311
    3    20	 1 ;       NG2S1       HGP1
    3     4	 1 ;       NG2S1      CG311
    4     5	 1 ;       CG311      CG321
    4    22	 1 ;       CG311      CG311
    4    36	 1 ;       CG311       HGA1
    5     6	 1 ;       CG321      CG311
    5    37	 1 ;       CG321       HGA2
    5    38	 1 ;       CG321       HGA2
    6    19	 1 ;       CG311      CG331
    6     7	 1 ;       CG311      CG321
    6    75	 1 ;       CG311       HGA1
    7     8	 1 ;       CG321      CG321
    7    39	 1 ;       CG321       HGA2
    7    40	 1 ;       CG321       HGA2
    8     9	 1 ;       CG321      CG321
    8    41	 1 ;       CG321       HGA2
    8    42	 1 ;       CG321       HGA2
    9    10	 1 ;       CG321      CG321
    9    43	 1 ;       CG321       HGA2
    9    44	 1 ;       CG321       HGA2
   10    11	 1 ;       CG321      CG321
   10    45	 1 ;       CG321       HGA2
   10    46	 1 ;       CG321       HGA2
   11    12	 1 ;       CG321      CG321
   11    47	 1 ;       CG321       HGA2
   11    48	 1 ;       CG321       HGA2
   12    13	 1 ;       CG321      CG321
   12    49	 1 ;       CG321       HGA2
   12    50	 1 ;       CG321       HGA2
   13    14	 1 ;       CG321      CG2O1
   13    51	 1 ;       CG321       HGA2
   13    52	 1 ;       CG321       HGA2
   14    15	 1 ;       CG2O1      OG2D1
   14    16	 1 ;       CG2O1      NG2S1
   16    17	 1 ;       NG2S1      CG311
   16    21	 1 ;       NG2S1       HGP1
   17    18	 1 ;       CG311      CG331
   17    53	 1 ;       CG311       HGA1
   18    54	 1 ;       CG331       HGA3
   18    55	 1 ;       CG331       HGA3
   18    56	 1 ;       CG331       HGA3
   19    57	 1 ;       CG331       HGA3
   19    58	 1 ;       CG331       HGA3
   19    76	 1 ;       CG331       HGA3
   22    23	 1 ;       CG311      OG311
   22    25	 1 ;       CG311      CG321
   22    59	 1 ;       CG311       HGA1
   23    24	 1 ;       OG311       HGP1
   25    26	 1 ;       CG321      CG311
   25    60	 1 ;       CG321       HGA2
   25    61	 1 ;       CG321       HGA2
   26    28	 1 ;       CG311      CG2O1
   26    27	 1 ;       CG311      CG331
   26    62	 1 ;       CG311       HGA1
   27    63	 1 ;       CG331       HGA3
   27    64	 1 ;       CG331       HGA3
   27    65	 1 ;       CG331       HGA3
   28    30	 1 ;       CG2O1      NG2S1
   28    29	 1 ;       CG2O1      OG2D1
   30    32	 1 ;       NG2S1      CG321
   30    31	 1 ;       NG2S1       HGP1
   32    33	 1 ;       CG321      CG321
   32    66	 1 ;       CG321       HGA2
   32    67	 1 ;       CG321       HGA2
   33    34	 1 ;       CG321      CG321
   33    68	 1 ;       CG321       HGA2
   33    69	 1 ;       CG321       HGA2
   34    35	 1 ;       CG321      CG331
   34    70	 1 ;       CG321       HGA2
   34    71	 1 ;       CG321       HGA2
   35    72	 1 ;       CG331       HGA3
   35    73	 1 ;       CG331       HGA3
   35    74	 1 ;       CG331       HGA3

[ pairs ]
;	ai	  aj funct			  c0			c1			  c2			c3
    1    20	 1
    1     4	 1
    1    18	 1
    1    16	 1
    1    53	 1
    2     5	 1
    2    22	 1
    2    36	 1
    2    14	 1
    2    21	 1
    2    54	 1
    2    55	 1
    2    56	 1
    3    18	 1
    3    16	 1
    3    53	 1
    3     6	 1
    3    37	 1
    3    38	 1
    3    23	 1
    3    25	 1
    3    59	 1
    4    17	 1
    4    19	 1
    4     7	 1
    4    75	 1
    4    24	 1
    4    26	 1
    4    60	 1
    4    61	 1
    5    20	 1
    5    23	 1
    5    25	 1
    5    59	 1
    5    57	 1
    5    58	 1
    5    76	 1
    5     8	 1
    5    39	 1
    5    40	 1
    6    22	 1
    6    36	 1
    6     9	 1
    6    41	 1
    6    42	 1
    7    37	 1
    7    38	 1
    7    57	 1
    7    58	 1
    7    76	 1
    7    10	 1
    7    43	 1
    7    44	 1
    8    19	 1
    8    75	 1
    8    11	 1
    8    45	 1
    8    46	 1
    9    39	 1
    9    40	 1
    9    12	 1
    9    47	 1
    9    48	 1
   10    41	 1
   10    42	 1
   10    13	 1
   10    49	 1
   10    50	 1
   11    43	 1
   11    44	 1
   11    14	 1
   11    51	 1
   11    52	 1
   12    45	 1
   12    46	 1
   12    15	 1
   12    16	 1
   13    47	 1
   13    48	 1
   13    17	 1
   13    21	 1
   14    49	 1
   14    50	 1
   14    18	 1
   14    53	 1
   15    51	 1
   15    52	 1
   15    17	 1
   15    21	 1
   16    51	 1
   16    52	 1
   16    54	 1
   16    55	 1
   16    56	 1
   17    20	 1
   18    21	 1
   19    37	 1
   19    38	 1
   19    39	 1
   19    40	 1
   20    22	 1
   20    36	 1
   21    53	 1
   22    37	 1
   22    38	 1
   22    28	 1
   22    27	 1
   22    62	 1
   23    36	 1
   23    26	 1
   23    60	 1
   23    61	 1
   24    25	 1
   24    59	 1
   25    36	 1
   25    30	 1
   25    29	 1
   25    63	 1
   25    64	 1
   25    65	 1
   26    59	 1
   26    32	 1
   26    31	 1
   27    60	 1
   27    61	 1
   27    30	 1
   27    29	 1
   28    60	 1
   28    61	 1
   28    63	 1
   28    64	 1
   28    65	 1
   28    33	 1
   28    66	 1
   28    67	 1
   29    62	 1
   29    32	 1
   29    31	 1
   30    62	 1
   30    34	 1
   30    68	 1
   30    69	 1
   31    33	 1
   31    66	 1
   31    67	 1
   32    35	 1
   32    70	 1
   32    71	 1
   33    72	 1
   33    73	 1
   33    74	 1
   34    66	 1
   34    67	 1
   35    68	 1
   35    69	 1
   36    37	 1
   36    38	 1
   36    59	 1
   37    75	 1
   38    75	 1
   39    75	 1
   39    41	 1
   39    42	 1
   40    75	 1
   40    41	 1
   40    42	 1
   41    43	 1
   41    44	 1
   42    43	 1
   42    44	 1
   43    45	 1
   43    46	 1
   44    45	 1
   44    46	 1
   45    47	 1
   45    48	 1
   46    47	 1
   46    48	 1
   47    49	 1
   47    50	 1
   48    49	 1
   48    50	 1
   49    51	 1
   49    52	 1
   50    51	 1
   50    52	 1
   53    54	 1
   53    55	 1
   53    56	 1
   57    75	 1
   58    75	 1
   59    60	 1
   59    61	 1
   60    62	 1
   61    62	 1
   62    63	 1
   62    64	 1
   62    65	 1
   66    68	 1
   66    69	 1
   67    68	 1
   67    69	 1
   68    70	 1
   68    71	 1
   69    70	 1
   69    71	 1
   70    72	 1
   70    73	 1
   70    74	 1
   71    72	 1
   71    73	 1
   71    74	 1
   75    76	 1

[ angles ]
;	ai	  aj	ak funct			c0			  c1			c2			  c3
    1     2     3	5 ;      OG2D1      CG2O1      NG2S1
    1     2    17	5 ;      OG2D1      CG2O1      CG311
    3     2    17	5 ;      NG2S1      CG2O1      CG311
   20     3     2	5 ;       HGP1      NG2S1      CG2O1
   20     3     4	5 ;       HGP1      NG2S1      CG311
    2     3     4	5 ;      CG2O1      NG2S1      CG311
    3     4     5	5 ;      NG2S1      CG311      CG321
    3     4    22	5 ;      NG2S1      CG311      CG311
    3     4    36	5 ;      NG2S1      CG311       HGA1
    5     4    22	5 ;      CG321      CG311      CG311
    5     4    36	5 ;      CG321      CG311       HGA1
   22     4    36	5 ;      CG311      CG311       HGA1
    4     5     6	5 ;      CG311      CG321      CG311
    4     5    37	5 ;      CG311      CG321       HGA2
    4     5    38	5 ;      CG311      CG321       HGA2
    6     5    37	5 ;      CG311      CG321       HGA2
    6     5    38	5 ;      CG311      CG321       HGA2
   37     5    38	5 ;       HGA2      CG321       HGA2
    5     6    19	5 ;      CG321      CG311      CG331
    5     6     7	5 ;      CG321      CG311      CG321
    5     6    75	5 ;      CG321      CG311       HGA1
   19     6     7	5 ;      CG331      CG311      CG321
   19     6    75	5 ;      CG331      CG311       HGA1
    7     6    75	5 ;      CG321      CG311       HGA1
    6     7     8	5 ;      CG311      CG321      CG321
    6     7    39	5 ;      CG311      CG321       HGA2
    6     7    40	5 ;      CG311      CG321       HGA2
    8     7    39	5 ;      CG321      CG321       HGA2
    8     7    40	5 ;      CG321      CG321       HGA2
   39     7    40	5 ;       HGA2      CG321       HGA2
    7     8     9	5 ;      CG321      CG321      CG321
    7     8    41	5 ;      CG321      CG321       HGA2
    7     8    42	5 ;      CG321      CG321       HGA2
    9     8    41	5 ;      CG321      CG321       HGA2
    9     8    42	5 ;      CG321      CG321       HGA2
   41     8    42	5 ;       HGA2      CG321       HGA2
    8     9    10	5 ;      CG321      CG321      CG321
    8     9    43	5 ;      CG321      CG321       HGA2
    8     9    44	5 ;      CG321      CG321       HGA2
   10     9    43	5 ;      CG321      CG321       HGA2
   10     9    44	5 ;      CG321      CG321       HGA2
   43     9    44	5 ;       HGA2      CG321       HGA2
    9    10    11	5 ;      CG321      CG321      CG321
    9    10    45	5 ;      CG321      CG321       HGA2
    9    10    46	5 ;      CG321      CG321       HGA2
   11    10    45	5 ;      CG321      CG321       HGA2
   11    10    46	5 ;      CG321      CG321       HGA2
   45    10    46	5 ;       HGA2      CG321       HGA2
   12    11    10	5 ;      CG321      CG321      CG321
   12    11    47	5 ;      CG321      CG321       HGA2
   12    11    48	5 ;      CG321      CG321       HGA2
   10    11    47	5 ;      CG321      CG321       HGA2
   10    11    48	5 ;      CG321      CG321       HGA2
   47    11    48	5 ;       HGA2      CG321       HGA2
   13    12    11	5 ;      CG321      CG321      CG321
   13    12    49	5 ;      CG321      CG321       HGA2
   13    12    50	5 ;      CG321      CG321       HGA2
   11    12    49	5 ;      CG321      CG321       HGA2
   11    12    50	5 ;      CG321      CG321       HGA2
   49    12    50	5 ;       HGA2      CG321       HGA2
   14    13    12	5 ;      CG2O1      CG321      CG321
   14    13    51	5 ;      CG2O1      CG321       HGA2
   14    13    52	5 ;      CG2O1      CG321       HGA2
   12    13    51	5 ;      CG321      CG321       HGA2
   12    13    52	5 ;      CG321      CG321       HGA2
   51    13    52	5 ;       HGA2      CG321       HGA2
   15    14    16	5 ;      OG2D1      CG2O1      NG2S1
   15    14    13	5 ;      OG2D1      CG2O1      CG321
   16    14    13	5 ;      NG2S1      CG2O1      CG321
   17    16    14	5 ;      CG311      NG2S1      CG2O1
   17    16    21	5 ;      CG311      NG2S1       HGP1
   14    16    21	5 ;      CG2O1      NG2S1       HGP1
    2    17    18	5 ;      CG2O1      CG311      CG331
    2    17    16	5 ;      CG2O1      CG311      NG2S1
    2    17    53	5 ;      CG2O1      CG311       HGA1
   18    17    16	5 ;      CG331      CG311      NG2S1
   18    17    53	5 ;      CG331      CG311       HGA1
   16    17    53	5 ;      NG2S1      CG311       HGA1
   17    18    54	5 ;      CG311      CG331       HGA3
   17    18    55	5 ;      CG311      CG331       HGA3
   17    18    56	5 ;      CG311      CG331       HGA3
   54    18    55	5 ;       HGA3      CG331       HGA3
   54    18    56	5 ;       HGA3      CG331       HGA3
   55    18    56	5 ;       HGA3      CG331       HGA3
    6    19    57	5 ;      CG311      CG331       HGA3
    6    19    58	5 ;      CG311      CG331       HGA3
    6    19    76	5 ;      CG311      CG331       HGA3
   57    19    58	5 ;       HGA3      CG331       HGA3
   57    19    76	5 ;       HGA3      CG331       HGA3
   58    19    76	5 ;       HGA3      CG331       HGA3
    4    22    23	5 ;      CG311      CG311      OG311
    4    22    25	5 ;      CG311      CG311      CG321
    4    22    59	5 ;      CG311      CG311       HGA1
   23    22    25	5 ;      OG311      CG311      CG321
   23    22    59	5 ;      OG311      CG311       HGA1
   25    22    59	5 ;      CG321      CG311       HGA1
   22    23    24	5 ;      CG311      OG311       HGP1
   22    25    26	5 ;      CG311      CG321      CG311
   22    25    60	5 ;      CG311      CG321       HGA2
   22    25    61	5 ;      CG311      CG321       HGA2
   26    25    60	5 ;      CG311      CG321       HGA2
   26    25    61	5 ;      CG311      CG321       HGA2
   60    25    61	5 ;       HGA2      CG321       HGA2
   25    26    28	5 ;      CG321      CG311      CG2O1
   25    26    27	5 ;      CG321      CG311      CG331
   25    26    62	5 ;      CG321      CG311       HGA1
   28    26    27	5 ;      CG2O1      CG311      CG331
   28    26    62	5 ;      CG2O1      CG311       HGA1
   27    26    62	5 ;      CG331      CG311       HGA1
   26    27    63	5 ;      CG311      CG331       HGA3
   26    27    64	5 ;      CG311      CG331       HGA3
   26    27    65	5 ;      CG311      CG331       HGA3
   63    27    64	5 ;       HGA3      CG331       HGA3
   63    27    65	5 ;       HGA3      CG331       HGA3
   64    27    65	5 ;       HGA3      CG331       HGA3
   30    28    26	5 ;      NG2S1      CG2O1      CG311
   30    28    29	5 ;      NG2S1      CG2O1      OG2D1
   26    28    29	5 ;      CG311      CG2O1      OG2D1
   32    30    31	5 ;      CG321      NG2S1       HGP1
   32    30    28	5 ;      CG321      NG2S1      CG2O1
   31    30    28	5 ;       HGP1      NG2S1      CG2O1
   30    32    33	5 ;      NG2S1      CG321      CG321
   30    32    66	5 ;      NG2S1      CG321       HGA2
   30    32    67	5 ;      NG2S1      CG321       HGA2
   33    32    66	5 ;      CG321      CG321       HGA2
   33    32    67	5 ;      CG321      CG321       HGA2
   66    32    67	5 ;       HGA2      CG321       HGA2
   32    33    34	5 ;      CG321      CG321      CG321
   32    33    68	5 ;      CG321      CG321       HGA2
   32    33    69	5 ;      CG321      CG321       HGA2
   34    33    68	5 ;      CG321      CG321       HGA2
   34    33    69	5 ;      CG321      CG321       HGA2
   68    33    69	5 ;       HGA2      CG321       HGA2
   35    34    33	5 ;      CG331      CG321      CG321
   35    34    70	5 ;      CG331      CG321       HGA2
   35    34    71	5 ;      CG331      CG321       HGA2
   33    34    70	5 ;      CG321      CG321       HGA2
   33    34    71	5 ;      CG321      CG321       HGA2
   70    34    71	5 ;       HGA2      CG321       HGA2
   34    35    72	5 ;      CG321      CG331       HGA3
   34    35    73	5 ;      CG321      CG331       HGA3
   34    35    74	5 ;      CG321      CG331       HGA3
   72    35    73	5 ;       HGA3      CG331       HGA3
   72    35    74	5 ;       HGA3      CG331       HGA3
   73    35    74	5 ;       HGA3      CG331       HGA3

[ dihedrals ]
;	ai	  aj	ak	  al funct			  c0			c1			  c2			c3			  c4			c5
    1     2     3    20	 9 ;      OG2D1      CG2O1      NG2S1       HGP1
    1     2     3     4	 9 ;      OG2D1      CG2O1      NG2S1      CG311
   17     2     3    20	 9 ;      CG311      CG2O1      NG2S1       HGP1
   17     2     3     4	 9 ;      CG311      CG2O1      NG2S1      CG311
    1     2    17    18	 9 ;      OG2D1      CG2O1      CG311      CG331
    1     2    17    16	 9 ;      OG2D1      CG2O1      CG311      NG2S1
    1     2    17    53	 9 ;      OG2D1      CG2O1      CG311       HGA1
    3     2    17    18	 9 ;      NG2S1      CG2O1      CG311      CG331
    3     2    17    16	 9 ;      NG2S1      CG2O1      CG311      NG2S1
    3     2    17    53	 9 ;      NG2S1      CG2O1      CG311       HGA1
   20     3     4     5	 9 ;       HGP1      NG2S1      CG311      CG321
   20     3     4    22	 9 ;       HGP1      NG2S1      CG311      CG311
   20     3     4    36	 9 ;       HGP1      NG2S1      CG311       HGA1
    2     3     4     5	 9 ;      CG2O1      NG2S1      CG311      CG321
    2     3     4    22	 9 ;      CG2O1      NG2S1      CG311      CG311
    2     3     4    36	 9 ;      CG2O1      NG2S1      CG311       HGA1
    3     4     5     6	 9 ;      NG2S1      CG311      CG321      CG311
    3     4     5    37	 9 ;      NG2S1      CG311      CG321       HGA2
    3     4     5    38	 9 ;      NG2S1      CG311      CG321       HGA2
   22     4     5     6	 9 ;      CG311      CG311      CG321      CG311
   22     4     5    37	 9 ;      CG311      CG311      CG321       HGA2
   22     4     5    38	 9 ;      CG311      CG311      CG321       HGA2
   36     4     5     6	 9 ;       HGA1      CG311      CG321      CG311
   36     4     5    37	 9 ;       HGA1      CG311      CG321       HGA2
   36     4     5    38	 9 ;       HGA1      CG311      CG321       HGA2
    3     4    22    23	 9 ;      NG2S1      CG311      CG311      OG311
    3     4    22    25	 9 ;      NG2S1      CG311      CG311      CG321
    3     4    22    59	 9 ;      NG2S1      CG311      CG311       HGA1
    5     4    22    23	 9 ;      CG321      CG311      CG311      OG311
    5     4    22    25	 9 ;      CG321      CG311      CG311      CG321
    5     4    22    59	 9 ;      CG321      CG311      CG311       HGA1
   36     4    22    23	 9 ;       HGA1      CG311      CG311      OG311
   36     4    22    25	 9 ;       HGA1      CG311      CG311      CG321
   36     4    22    59	 9 ;       HGA1      CG311      CG311       HGA1
    4     5     6    19	 9 ;      CG311      CG321      CG311      CG331
    4     5     6     7	 9 ;      CG311      CG321      CG311      CG321
    4     5     6    75	 9 ;      CG311      CG321      CG311       HGA1
   37     5     6    19	 9 ;       HGA2      CG321      CG311      CG331
   37     5     6     7	 9 ;       HGA2      CG321      CG311      CG321
   37     5     6    75	 9 ;       HGA2      CG321      CG311       HGA1
   38     5     6    19	 9 ;       HGA2      CG321      CG311      CG331
   38     5     6     7	 9 ;       HGA2      CG321      CG311      CG321
   38     5     6    75	 9 ;       HGA2      CG321      CG311       HGA1
    5     6    19    57	 9 ;      CG321      CG311      CG331       HGA3
    5     6    19    58	 9 ;      CG321      CG311      CG331       HGA3
    5     6    19    76	 9 ;      CG321      CG311      CG331       HGA3
    7     6    19    57	 9 ;      CG321      CG311      CG331       HGA3
    7     6    19    58	 9 ;      CG321      CG311      CG331       HGA3
    7     6    19    76	 9 ;      CG321      CG311      CG331       HGA3
   75     6    19    57	 9 ;       HGA1      CG311      CG331       HGA3
   75     6    19    58	 9 ;       HGA1      CG311      CG331       HGA3
   75     6    19    76	 9 ;       HGA1      CG311      CG331       HGA3
    5     6     7     8	 9 ;      CG321      CG311      CG321      CG321
    5     6     7    39	 9 ;      CG321      CG311      CG321       HGA2
    5     6     7    40	 9 ;      CG321      CG311      CG321       HGA2
   19     6     7     8	 9 ;      CG331      CG311      CG321      CG321
   19     6     7    39	 9 ;      CG331      CG311      CG321       HGA2
   19     6     7    40	 9 ;      CG331      CG311      CG321       HGA2
   75     6     7     8	 9 ;       HGA1      CG311      CG321      CG321
   75     6     7    39	 9 ;       HGA1      CG311      CG321       HGA2
   75     6     7    40	 9 ;       HGA1      CG311      CG321       HGA2
    6     7     8     9	 9 ;      CG311      CG321      CG321      CG321
    6     7     8    41	 9 ;      CG311      CG321      CG321       HGA2
    6     7     8    42	 9 ;      CG311      CG321      CG321       HGA2
   39     7     8     9	 9 ;       HGA2      CG321      CG321      CG321
   39     7     8    41	 9 ;       HGA2      CG321      CG321       HGA2
   39     7     8    42	 9 ;       HGA2      CG321      CG321       HGA2
   40     7     8     9	 9 ;       HGA2      CG321      CG321      CG321
   40     7     8    41	 9 ;       HGA2      CG321      CG321       HGA2
   40     7     8    42	 9 ;       HGA2      CG321      CG321       HGA2
    7     8     9    10	 9 ;      CG321      CG321      CG321      CG321
    7     8     9    43	 9 ;      CG321      CG321      CG321       HGA2
    7     8     9    44	 9 ;      CG321      CG321      CG321       HGA2
   41     8     9    10	 9 ;       HGA2      CG321      CG321      CG321
   41     8     9    43	 9 ;       HGA2      CG321      CG321       HGA2
   41     8     9    44	 9 ;       HGA2      CG321      CG321       HGA2
   42     8     9    10	 9 ;       HGA2      CG321      CG321      CG321
   42     8     9    43	 9 ;       HGA2      CG321      CG321       HGA2
   42     8     9    44	 9 ;       HGA2      CG321      CG321       HGA2
    8     9    10    11	 9 ;      CG321      CG321      CG321      CG321
    8     9    10    45	 9 ;      CG321      CG321      CG321       HGA2
    8     9    10    46	 9 ;      CG321      CG321      CG321       HGA2
   43     9    10    11	 9 ;       HGA2      CG321      CG321      CG321
   43     9    10    45	 9 ;       HGA2      CG321      CG321       HGA2
   43     9    10    46	 9 ;       HGA2      CG321      CG321       HGA2
   44     9    10    11	 9 ;       HGA2      CG321      CG321      CG321
   44     9    10    45	 9 ;       HGA2      CG321      CG321       HGA2
   44     9    10    46	 9 ;       HGA2      CG321      CG321       HGA2
    9    10    11    12	 9 ;      CG321      CG321      CG321      CG321
    9    10    11    47	 9 ;      CG321      CG321      CG321       HGA2
    9    10    11    48	 9 ;      CG321      CG321      CG321       HGA2
   45    10    11    12	 9 ;       HGA2      CG321      CG321      CG321
   45    10    11    47	 9 ;       HGA2      CG321      CG321       HGA2
   45    10    11    48	 9 ;       HGA2      CG321      CG321       HGA2
   46    10    11    12	 9 ;       HGA2      CG321      CG321      CG321
   46    10    11    47	 9 ;       HGA2      CG321      CG321       HGA2
   46    10    11    48	 9 ;       HGA2      CG321      CG321       HGA2
   10    11    12    13	 9 ;      CG321      CG321      CG321      CG321
   10    11    12    49	 9 ;      CG321      CG321      CG321       HGA2
   10    11    12    50	 9 ;      CG321      CG321      CG321       HGA2
   47    11    12    13	 9 ;       HGA2      CG321      CG321      CG321
   47    11    12    49	 9 ;       HGA2      CG321      CG321       HGA2
   47    11    12    50	 9 ;       HGA2      CG321      CG321       HGA2
   48    11    12    13	 9 ;       HGA2      CG321      CG321      CG321
   48    11    12    49	 9 ;       HGA2      CG321      CG321       HGA2
   48    11    12    50	 9 ;       HGA2      CG321      CG321       HGA2
   11    12    13    14	 9 ;      CG321      CG321      CG321      CG2O1
   11    12    13    51	 9 ;      CG321      CG321      CG321       HGA2
   11    12    13    52	 9 ;      CG321      CG321      CG321       HGA2
   49    12    13    14	 9 ;       HGA2      CG321      CG321      CG2O1
   49    12    13    51	 9 ;       HGA2      CG321      CG321       HGA2
   49    12    13    52	 9 ;       HGA2      CG321      CG321       HGA2
   50    12    13    14	 9 ;       HGA2      CG321      CG321      CG2O1
   50    12    13    51	 9 ;       HGA2      CG321      CG321       HGA2
   50    12    13    52	 9 ;       HGA2      CG321      CG321       HGA2
   12    13    14    15	 9 ;      CG321      CG321      CG2O1      OG2D1
   12    13    14    16	 9 ;      CG321      CG321      CG2O1      NG2S1
   51    13    14    15	 9 ;       HGA2      CG321      CG2O1      OG2D1
   51    13    14    16	 9 ;       HGA2      CG321      CG2O1      NG2S1
   52    13    14    15	 9 ;       HGA2      CG321      CG2O1      OG2D1
   52    13    14    16	 9 ;       HGA2      CG321      CG2O1      NG2S1
   15    14    16    17	 9 ;      OG2D1      CG2O1      NG2S1      CG311
   15    14    16    21	 9 ;      OG2D1      CG2O1      NG2S1       HGP1
   13    14    16    17	 9 ;      CG321      CG2O1      NG2S1      CG311
   13    14    16    21	 9 ;      CG321      CG2O1      NG2S1       HGP1
   14    16    17     2	 9 ;      CG2O1      NG2S1      CG311      CG2O1
   14    16    17    18	 9 ;      CG2O1      NG2S1      CG311      CG331
   14    16    17    53	 9 ;      CG2O1      NG2S1      CG311       HGA1
   21    16    17     2	 9 ;       HGP1      NG2S1      CG311      CG2O1
   21    16    17    18	 9 ;       HGP1      NG2S1      CG311      CG331
   21    16    17    53	 9 ;       HGP1      NG2S1      CG311       HGA1
    2    17    18    54	 9 ;      CG2O1      CG311      CG331       HGA3
    2    17    18    55	 9 ;      CG2O1      CG311      CG331       HGA3
    2    17    18    56	 9 ;      CG2O1      CG311      CG331       HGA3
   16    17    18    54	 9 ;      NG2S1      CG311      CG331       HGA3
   16    17    18    55	 9 ;      NG2S1      CG311      CG331       HGA3
   16    17    18    56	 9 ;      NG2S1      CG311      CG331       HGA3
   53    17    18    54	 9 ;       HGA1      CG311      CG331       HGA3
   53    17    18    55	 9 ;       HGA1      CG311      CG331       HGA3
   53    17    18    56	 9 ;       HGA1      CG311      CG331       HGA3
    4    22    23    24	 9 ;      CG311      CG311      OG311       HGP1
   25    22    23    24	 9 ;      CG321      CG311      OG311       HGP1
   59    22    23    24	 9 ;       HGA1      CG311      OG311       HGP1
    4    22    25    26	 9 ;      CG311      CG311      CG321      CG311
    4    22    25    60	 9 ;      CG311      CG311      CG321       HGA2
    4    22    25    61	 9 ;      CG311      CG311      CG321       HGA2
   23    22    25    26	 9 ;      OG311      CG311      CG321      CG311
   23    22    25    60	 9 ;      OG311      CG311      CG321       HGA2
   23    22    25    61	 9 ;      OG311      CG311      CG321       HGA2
   59    22    25    26	 9 ;       HGA1      CG311      CG321      CG311
   59    22    25    60	 9 ;       HGA1      CG311      CG321       HGA2
   59    22    25    61	 9 ;       HGA1      CG311      CG321       HGA2
   22    25    26    28	 9 ;      CG311      CG321      CG311      CG2O1
   22    25    26    27	 9 ;      CG311      CG321      CG311      CG331
   22    25    26    62	 9 ;      CG311      CG321      CG311       HGA1
   60    25    26    28	 9 ;       HGA2      CG321      CG311      CG2O1
   60    25    26    27	 9 ;       HGA2      CG321      CG311      CG331
   60    25    26    62	 9 ;       HGA2      CG321      CG311       HGA1
   61    25    26    28	 9 ;       HGA2      CG321      CG311      CG2O1
   61    25    26    27	 9 ;       HGA2      CG321      CG311      CG331
   61    25    26    62	 9 ;       HGA2      CG321      CG311       HGA1
   25    26    28    30	 9 ;      CG321      CG311      CG2O1      NG2S1
   25    26    28    29	 9 ;      CG321      CG311      CG2O1      OG2D1
   27    26    28    30	 9 ;      CG331      CG311      CG2O1      NG2S1
   27    26    28    29	 9 ;      CG331      CG311      CG2O1      OG2D1
   62    26    28    30	 9 ;       HGA1      CG311      CG2O1      NG2S1
   62    26    28    29	 9 ;       HGA1      CG311      CG2O1      OG2D1
   25    26    27    63	 9 ;      CG321      CG311      CG331       HGA3
   25    26    27    64	 9 ;      CG321      CG311      CG331       HGA3
   25    26    27    65	 9 ;      CG321      CG311      CG331       HGA3
   28    26    27    63	 9 ;      CG2O1      CG311      CG331       HGA3
   28    26    27    64	 9 ;      CG2O1      CG311      CG331       HGA3
   28    26    27    65	 9 ;      CG2O1      CG311      CG331       HGA3
   62    26    27    63	 9 ;       HGA1      CG311      CG331       HGA3
   62    26    27    64	 9 ;       HGA1      CG311      CG331       HGA3
   62    26    27    65	 9 ;       HGA1      CG311      CG331       HGA3
   26    28    30    32	 9 ;      CG311      CG2O1      NG2S1      CG321
   26    28    30    31	 9 ;      CG311      CG2O1      NG2S1       HGP1
   29    28    30    32	 9 ;      OG2D1      CG2O1      NG2S1      CG321
   29    28    30    31	 9 ;      OG2D1      CG2O1      NG2S1       HGP1
   31    30    32    33	 9 ;       HGP1      NG2S1      CG321      CG321
   31    30    32    66	 9 ;       HGP1      NG2S1      CG321       HGA2
   31    30    32    67	 9 ;       HGP1      NG2S1      CG321       HGA2
   28    30    32    33	 9 ;      CG2O1      NG2S1      CG321      CG321
   28    30    32    66	 9 ;      CG2O1      NG2S1      CG321       HGA2
   28    30    32    67	 9 ;      CG2O1      NG2S1      CG321       HGA2
   30    32    33    34	 9 ;      NG2S1      CG321      CG321      CG321
   30    32    33    68	 9 ;      NG2S1      CG321      CG321       HGA2
   30    32    33    69	 9 ;      NG2S1      CG321      CG321       HGA2
   66    32    33    34	 9 ;       HGA2      CG321      CG321      CG321
   66    32    33    68	 9 ;       HGA2      CG321      CG321       HGA2
   66    32    33    69	 9 ;       HGA2      CG321      CG321       HGA2
   67    32    33    34	 9 ;       HGA2      CG321      CG321      CG321
   67    32    33    68	 9 ;       HGA2      CG321      CG321       HGA2
   67    32    33    69	 9 ;       HGA2      CG321      CG321       HGA2
   32    33    34    35	 9 ;      CG321      CG321      CG321      CG331
   32    33    34    70	 9 ;      CG321      CG321      CG321       HGA2
   32    33    34    71	 9 ;      CG321      CG321      CG321       HGA2
   68    33    34    35	 9 ;       HGA2      CG321      CG321      CG331
   68    33    34    70	 9 ;       HGA2      CG321      CG321       HGA2
   68    33    34    71	 9 ;       HGA2      CG321      CG321       HGA2
   69    33    34    35	 9 ;       HGA2      CG321      CG321      CG331
   69    33    34    70	 9 ;       HGA2      CG321      CG321       HGA2
   69    33    34    71	 9 ;       HGA2      CG321      CG321       HGA2
   33    34    35    72	 9 ;      CG321      CG321      CG331       HGA3
   33    34    35    73	 9 ;      CG321      CG321      CG331       HGA3
   33    34    35    74	 9 ;      CG321      CG321      CG331       HGA3
   70    34    35    72	 9 ;       HGA2      CG321      CG331       HGA3
   70    34    35    73	 9 ;       HGA2      CG321      CG331       HGA3
   70    34    35    74	 9 ;       HGA2      CG321      CG331       HGA3
   71    34    35    72	 9 ;       HGA2      CG321      CG331       HGA3
   71    34    35    73	 9 ;       HGA2      CG321      CG331       HGA3
   71    34    35    74	 9 ;       HGA2      CG321      CG331       HGA3

[ dihedrals ]
;	ai	  aj	ak	  al funct			  c0			c1			  c2			c3
    2    17     3     1	 2
   14    13    16    15	 2
   28    26    30    29	 2

