; Created by cgenff_charmm2gmx.py

[ moleculetype ]
; Name			   nrexcl
LIG				 3

[ atoms ]
;	 nr		  type	resnr residue  atom   cgnr	   charge		mass  typeB    chargeB		massB
; residue	 1 LIG rtp LIG q	qsum
     1     CG2R67      1    LIG     C1      1      0.007     12.011   ;
     2     CG2R61      1    LIG     C2      2     -0.124     12.011   ;
     3     CG2R61      1    LIG     C3      3      0.003     12.011   ;
     4     CG2R61      1    LIG     C4      4     -0.117     12.011   ;
     5     CG2R61      1    LIG     C5      5     -0.115     12.011   ;
     6     CG2R61      1    LIG     C6      6     -0.119     12.011   ;
     7      CG321      1    LIG     C7      7     -0.137     12.011   ;
     8      CG321      1    LIG     C8      8     -0.115     12.011   ;
     9     CG2D1O      1    LIG     C9      9      0.088     12.011   ;
    10      NG311      1    LIG     N1     10     -0.562     14.007   ;
    11      CG314      1    LIG    C10     11      0.649     12.011   ;
    12     HGPAM1      1    LIG     HN     12      0.321      1.008   ;
    13      NG2S0      1    LIG     N2     13     -0.343     14.007   ;
    14      CG331      1    LIG    C11     14     -0.238     12.011   ;
    15      CG2O1      1    LIG    C12     15      0.413     12.011   ;
    16      OG2D1      1    LIG     O1     16     -0.540     15.999   ;
    17     CG2DC1      1    LIG    C13     17      0.070     12.011   ;
    18      NG3P3      1    LIG     N3     18     -0.425     14.007   ;
    19       HGP2      1    LIG     H1     19      0.313      1.008   ;
    20       HGP2      1    LIG     H2     20      0.313      1.008   ;
    21     CG2R67      1    LIG    C14     21      0.006     12.011   ;
    22     CG2R61      1    LIG    C15     22     -0.122     12.011   ;
    23     CG2R61      1    LIG    C16     23      0.209     12.011   ;
    24     CG2R61      1    LIG    C17     24     -0.115     12.011   ;
    25     CG2R61      1    LIG    C18     25     -0.116     12.011   ;
    26     CG2R61      1    LIG    C19     26     -0.119     12.011   ;
    27      OG301      1    LIG     O2     27     -0.383     15.999   ;
    28      CG331      1    LIG    C20     28     -0.094     12.011   ;
    29      HGR61      1    LIG     HC     29      0.116      1.008   ;
    30      HGR61      1    LIG    HC1     30      0.116      1.008   ;
    31      HGR61      1    LIG    HC2     31      0.116      1.008   ;
    32      HGR61      1    LIG    HC3     32      0.116      1.008   ;
    33       HGA2      1    LIG    HC4     33      0.090      1.008   ;
    34       HGA2      1    LIG    HC5     34      0.090      1.008   ;
    35       HGA2      1    LIG    HC6     35      0.090      1.008   ;
    36       HGA2      1    LIG    HC7     36      0.090      1.008   ;
    37       HGA1      1    LIG    HC8     37      0.115      1.008   ;
    38       HGA3      1    LIG    HC9     38      0.090      1.008   ;
    39       HGA3      1    LIG   HC10     39      0.090      1.008   ;
    40       HGA3      1    LIG   HC11     40      0.090      1.008   ;
    41       HGA4      1    LIG   HC12     41      0.136      1.008   ;
    42       HGP2      1    LIG    HN1     42      0.313      1.008   ;
    43      HGR61      1    LIG   HC13     43      0.116      1.008   ;
    44      HGR61      1    LIG   HC14     44      0.116      1.008   ;
    45      HGR61      1    LIG   HC15     45      0.116      1.008   ;
    46      HGR61      1    LIG   HC16     46      0.116      1.008   ;
    47       HGA3      1    LIG   HC17     47      0.090      1.008   ;
    48       HGA3      1    LIG   HC18     48      0.090      1.008   ;
    49       HGA3      1    LIG   HC19     49      0.090      1.008   ;

[ bonds ]
;	ai	  aj funct			  c0			c1			  c2			c3
    1    21	 1 ;      CG2R67     CG2R67
    1     6	 1 ;      CG2R67     CG2R61
    1     2	 1 ;      CG2R67     CG2R61
    2     3	 1 ;      CG2R61     CG2R61
    2    29	 1 ;      CG2R61      HGR61
    3     4	 1 ;      CG2R61     CG2R61
    3     7	 1 ;      CG2R61      CG321
    4     5	 1 ;      CG2R61     CG2R61
    4    30	 1 ;      CG2R61      HGR61
    5     6	 1 ;      CG2R61     CG2R61
    5    31	 1 ;      CG2R61      HGR61
    6    32	 1 ;      CG2R61      HGR61
    7     8	 1 ;       CG321      CG321
    7    33	 1 ;       CG321       HGA2
    7    34	 1 ;       CG321       HGA2
    8     9	 1 ;       CG321     CG2D1O
    8    35	 1 ;       CG321       HGA2
    8    36	 1 ;       CG321       HGA2
    9    10	 1 ;      CG2D1O      NG311
    9    17	 1 ;      CG2D1O     CG2DC1
   10    12	 1 ;       NG311     HGPAM1
   10    11	 1 ;       NG311      CG314
   11    18	 1 ;       CG314      NG3P3
   11    13	 1 ;       CG314      NG2S0
   11    37	 1 ;       CG314       HGA1
   13    15	 1 ;       NG2S0      CG2O1
   13    14	 1 ;       NG2S0      CG331
   14    38	 1 ;       CG331       HGA3
   14    39	 1 ;       CG331       HGA3
   14    40	 1 ;       CG331       HGA3
   15    17	 1 ;       CG2O1     CG2DC1
   15    16	 1 ;       CG2O1      OG2D1
   17    41	 1 ;      CG2DC1       HGA4
   18    20	 1 ;       NG3P3       HGP2
   18    19	 1 ;       NG3P3       HGP2
   18    42	 1 ;       NG3P3       HGP2
   21    22	 1 ;      CG2R67     CG2R61
   21    26	 1 ;      CG2R67     CG2R61
   22    23	 1 ;      CG2R61     CG2R61
   22    43	 1 ;      CG2R61      HGR61
   23    27	 1 ;      CG2R61      OG301
   23    24	 1 ;      CG2R61     CG2R61
   24    25	 1 ;      CG2R61     CG2R61
   24    44	 1 ;      CG2R61      HGR61
   25    26	 1 ;      CG2R61     CG2R61
   25    45	 1 ;      CG2R61      HGR61
   26    46	 1 ;      CG2R61      HGR61
   27    28	 1 ;       OG301      CG331
   28    47	 1 ;       CG331       HGA3
   28    48	 1 ;       CG331       HGA3
   28    49	 1 ;       CG331       HGA3

[ pairs ]
;	ai	  aj funct			  c0			c1			  c2			c3
    1     4	 1
    1     7	 1
    1    31	 1
    1    23	 1
    1    43	 1
    1    25	 1
    1    46	 1
    2    22	 1
    2    26	 1
    2     5	 1
    2    32	 1
    2    30	 1
    2     8	 1
    2    33	 1
    2    34	 1
    3    21	 1
    3     6	 1
    3    31	 1
    3     9	 1
    3    35	 1
    3    36	 1
    4    29	 1
    4     8	 1
    4    33	 1
    4    34	 1
    4    32	 1
    5    21	 1
    5     7	 1
    6    22	 1
    6    26	 1
    6    29	 1
    6    30	 1
    7    29	 1
    7    30	 1
    7    10	 1
    7    17	 1
    8    12	 1
    8    11	 1
    8    15	 1
    8    41	 1
    9    33	 1
    9    34	 1
    9    18	 1
    9    13	 1
    9    37	 1
    9    16	 1
   10    35	 1
   10    36	 1
   10    15	 1
   10    41	 1
   10    20	 1
   10    19	 1
   10    42	 1
   10    14	 1
   11    17	 1
   11    16	 1
   11    38	 1
   11    39	 1
   11    40	 1
   12    17	 1
   12    18	 1
   12    13	 1
   12    37	 1
   13    20	 1
   13    19	 1
   13    42	 1
   13    41	 1
   14    18	 1
   14    37	 1
   14    17	 1
   14    16	 1
   15    18	 1
   15    37	 1
   15    38	 1
   15    39	 1
   15    40	 1
   16    41	 1
   17    35	 1
   17    36	 1
   19    37	 1
   20    37	 1
   21    32	 1
   21    29	 1
   21    27	 1
   21    24	 1
   21    45	 1
   22    25	 1
   22    46	 1
   22    28	 1
   22    44	 1
   23    26	 1
   23    45	 1
   23    47	 1
   23    48	 1
   23    49	 1
   24    43	 1
   24    28	 1
   24    46	 1
   25    27	 1
   26    43	 1
   26    44	 1
   27    43	 1
   27    44	 1
   30    31	 1
   31    32	 1
   33    35	 1
   33    36	 1
   34    35	 1
   34    36	 1
   37    42	 1
   44    45	 1
   45    46	 1

[ angles ]
;	ai	  aj	ak funct			c0			  c1			c2			  c3
   21     1     6	5 ;     CG2R67     CG2R67     CG2R61
   21     1     2	5 ;     CG2R67     CG2R67     CG2R61
    6     1     2	5 ;     CG2R61     CG2R67     CG2R61
    1     2     3	5 ;     CG2R67     CG2R61     CG2R61
    1     2    29	5 ;     CG2R67     CG2R61      HGR61
    3     2    29	5 ;     CG2R61     CG2R61      HGR61
    2     3     4	5 ;     CG2R61     CG2R61     CG2R61
    2     3     7	5 ;     CG2R61     CG2R61      CG321
    4     3     7	5 ;     CG2R61     CG2R61      CG321
    5     4     3	5 ;     CG2R61     CG2R61     CG2R61
    5     4    30	5 ;     CG2R61     CG2R61      HGR61
    3     4    30	5 ;     CG2R61     CG2R61      HGR61
    6     5     4	5 ;     CG2R61     CG2R61     CG2R61
    6     5    31	5 ;     CG2R61     CG2R61      HGR61
    4     5    31	5 ;     CG2R61     CG2R61      HGR61
    1     6     5	5 ;     CG2R67     CG2R61     CG2R61
    1     6    32	5 ;     CG2R67     CG2R61      HGR61
    5     6    32	5 ;     CG2R61     CG2R61      HGR61
    3     7     8	5 ;     CG2R61      CG321      CG321
    3     7    33	5 ;     CG2R61      CG321       HGA2
    3     7    34	5 ;     CG2R61      CG321       HGA2
    8     7    33	5 ;      CG321      CG321       HGA2
    8     7    34	5 ;      CG321      CG321       HGA2
   33     7    34	5 ;       HGA2      CG321       HGA2
    7     8     9	5 ;      CG321      CG321     CG2D1O
    7     8    35	5 ;      CG321      CG321       HGA2
    7     8    36	5 ;      CG321      CG321       HGA2
    9     8    35	5 ;     CG2D1O      CG321       HGA2
    9     8    36	5 ;     CG2D1O      CG321       HGA2
   35     8    36	5 ;       HGA2      CG321       HGA2
    8     9    10	5 ;      CG321     CG2D1O      NG311
    8     9    17	5 ;      CG321     CG2D1O     CG2DC1
   10     9    17	5 ;      NG311     CG2D1O     CG2DC1
   12    10     9	5 ;     HGPAM1      NG311     CG2D1O
   12    10    11	5 ;     HGPAM1      NG311      CG314
    9    10    11	5 ;     CG2D1O      NG311      CG314
   10    11    18	5 ;      NG311      CG314      NG3P3
   10    11    13	5 ;      NG311      CG314      NG2S0
   10    11    37	5 ;      NG311      CG314       HGA1
   18    11    13	5 ;      NG3P3      CG314      NG2S0
   18    11    37	5 ;      NG3P3      CG314       HGA1
   13    11    37	5 ;      NG2S0      CG314       HGA1
   11    13    15	5 ;      CG314      NG2S0      CG2O1
   11    13    14	5 ;      CG314      NG2S0      CG331
   15    13    14	5 ;      CG2O1      NG2S0      CG331
   13    14    38	5 ;      NG2S0      CG331       HGA3
   13    14    39	5 ;      NG2S0      CG331       HGA3
   13    14    40	5 ;      NG2S0      CG331       HGA3
   38    14    39	5 ;       HGA3      CG331       HGA3
   38    14    40	5 ;       HGA3      CG331       HGA3
   39    14    40	5 ;       HGA3      CG331       HGA3
   17    15    13	5 ;     CG2DC1      CG2O1      NG2S0
   17    15    16	5 ;     CG2DC1      CG2O1      OG2D1
   13    15    16	5 ;      NG2S0      CG2O1      OG2D1
    9    17    15	5 ;     CG2D1O     CG2DC1      CG2O1
    9    17    41	5 ;     CG2D1O     CG2DC1       HGA4
   15    17    41	5 ;      CG2O1     CG2DC1       HGA4
   11    18    20	5 ;      CG314      NG3P3       HGP2
   11    18    19	5 ;      CG314      NG3P3       HGP2
   11    18    42	5 ;      CG314      NG3P3       HGP2
   20    18    19	5 ;       HGP2      NG3P3       HGP2
   20    18    42	5 ;       HGP2      NG3P3       HGP2
   19    18    42	5 ;       HGP2      NG3P3       HGP2
   22    21    26	5 ;     CG2R61     CG2R67     CG2R61
   22    21     1	5 ;     CG2R61     CG2R67     CG2R67
   26    21     1	5 ;     CG2R61     CG2R67     CG2R67
   23    22    21	5 ;     CG2R61     CG2R61     CG2R67
   23    22    43	5 ;     CG2R61     CG2R61      HGR61
   21    22    43	5 ;     CG2R67     CG2R61      HGR61
   27    23    24	5 ;      OG301     CG2R61     CG2R61
   27    23    22	5 ;      OG301     CG2R61     CG2R61
   24    23    22	5 ;     CG2R61     CG2R61     CG2R61
   23    24    25	5 ;     CG2R61     CG2R61     CG2R61
   23    24    44	5 ;     CG2R61     CG2R61      HGR61
   25    24    44	5 ;     CG2R61     CG2R61      HGR61
   24    25    26	5 ;     CG2R61     CG2R61     CG2R61
   24    25    45	5 ;     CG2R61     CG2R61      HGR61
   26    25    45	5 ;     CG2R61     CG2R61      HGR61
   25    26    21	5 ;     CG2R61     CG2R61     CG2R67
   25    26    46	5 ;     CG2R61     CG2R61      HGR61
   21    26    46	5 ;     CG2R67     CG2R61      HGR61
   23    27    28	5 ;     CG2R61      OG301      CG331
   27    28    47	5 ;      OG301      CG331       HGA3
   27    28    48	5 ;      OG301      CG331       HGA3
   27    28    49	5 ;      OG301      CG331       HGA3
   47    28    48	5 ;       HGA3      CG331       HGA3
   47    28    49	5 ;       HGA3      CG331       HGA3
   48    28    49	5 ;       HGA3      CG331       HGA3

[ dihedrals ]
;	ai	  aj	ak	  al funct			  c0			c1			  c2			c3			  c4			c5
    6     1    21    22	 9 ;     CG2R61     CG2R67     CG2R67     CG2R61
    6     1    21    26	 9 ;     CG2R61     CG2R67     CG2R67     CG2R61
    2     1    21    22	 9 ;     CG2R61     CG2R67     CG2R67     CG2R61
    2     1    21    26	 9 ;     CG2R61     CG2R67     CG2R67     CG2R61
   21     1     6     5	 9 ;     CG2R67     CG2R67     CG2R61     CG2R61
   21     1     6    32	 9 ;     CG2R67     CG2R67     CG2R61      HGR61
    2     1     6     5	 9 ;     CG2R61     CG2R67     CG2R61     CG2R61
    2     1     6    32	 9 ;     CG2R61     CG2R67     CG2R61      HGR61
   21     1     2     3	 9 ;     CG2R67     CG2R67     CG2R61     CG2R61
   21     1     2    29	 9 ;     CG2R67     CG2R67     CG2R61      HGR61
    6     1     2     3	 9 ;     CG2R61     CG2R67     CG2R61     CG2R61
    6     1     2    29	 9 ;     CG2R61     CG2R67     CG2R61      HGR61
    1     2     3     4	 9 ;     CG2R67     CG2R61     CG2R61     CG2R61
    1     2     3     7	 9 ;     CG2R67     CG2R61     CG2R61      CG321
   29     2     3     4	 9 ;      HGR61     CG2R61     CG2R61     CG2R61
   29     2     3     7	 9 ;      HGR61     CG2R61     CG2R61      CG321
    2     3     4     5	 9 ;     CG2R61     CG2R61     CG2R61     CG2R61
    2     3     4    30	 9 ;     CG2R61     CG2R61     CG2R61      HGR61
    7     3     4     5	 9 ;      CG321     CG2R61     CG2R61     CG2R61
    7     3     4    30	 9 ;      CG321     CG2R61     CG2R61      HGR61
    2     3     7     8	 9 ;     CG2R61     CG2R61      CG321      CG321
    2     3     7    33	 9 ;     CG2R61     CG2R61      CG321       HGA2
    2     3     7    34	 9 ;     CG2R61     CG2R61      CG321       HGA2
    4     3     7     8	 9 ;     CG2R61     CG2R61      CG321      CG321
    4     3     7    33	 9 ;     CG2R61     CG2R61      CG321       HGA2
    4     3     7    34	 9 ;     CG2R61     CG2R61      CG321       HGA2
    3     4     5     6	 9 ;     CG2R61     CG2R61     CG2R61     CG2R61
    3     4     5    31	 9 ;     CG2R61     CG2R61     CG2R61      HGR61
   30     4     5     6	 9 ;      HGR61     CG2R61     CG2R61     CG2R61
   30     4     5    31	 9 ;      HGR61     CG2R61     CG2R61      HGR61
    4     5     6     1	 9 ;     CG2R61     CG2R61     CG2R61     CG2R67
    4     5     6    32	 9 ;     CG2R61     CG2R61     CG2R61      HGR61
   31     5     6     1	 9 ;      HGR61     CG2R61     CG2R61     CG2R67
   31     5     6    32	 9 ;      HGR61     CG2R61     CG2R61      HGR61
    3     7     8     9	 9 ;     CG2R61      CG321      CG321     CG2D1O
    3     7     8    35	 9 ;     CG2R61      CG321      CG321       HGA2
    3     7     8    36	 9 ;     CG2R61      CG321      CG321       HGA2
   33     7     8     9	 9 ;       HGA2      CG321      CG321     CG2D1O
   33     7     8    35	 9 ;       HGA2      CG321      CG321       HGA2
   33     7     8    36	 9 ;       HGA2      CG321      CG321       HGA2
   34     7     8     9	 9 ;       HGA2      CG321      CG321     CG2D1O
   34     7     8    35	 9 ;       HGA2      CG321      CG321       HGA2
   34     7     8    36	 9 ;       HGA2      CG321      CG321       HGA2
    7     8     9    10	 9 ;      CG321      CG321     CG2D1O      NG311
    7     8     9    17	 9 ;      CG321      CG321     CG2D1O     CG2DC1
   35     8     9    10	 9 ;       HGA2      CG321     CG2D1O      NG311
   35     8     9    17	 9 ;       HGA2      CG321     CG2D1O     CG2DC1
   36     8     9    10	 9 ;       HGA2      CG321     CG2D1O      NG311
   36     8     9    17	 9 ;       HGA2      CG321     CG2D1O     CG2DC1
    8     9    10    12	 9 ;      CG321     CG2D1O      NG311     HGPAM1
    8     9    10    11	 9 ;      CG321     CG2D1O      NG311      CG314
   17     9    10    12	 9 ;     CG2DC1     CG2D1O      NG311     HGPAM1
   17     9    10    11	 9 ;     CG2DC1     CG2D1O      NG311      CG314
    8     9    17    15	 9 ;      CG321     CG2D1O     CG2DC1      CG2O1
    8     9    17    41	 9 ;      CG321     CG2D1O     CG2DC1       HGA4
   10     9    17    15	 9 ;      NG311     CG2D1O     CG2DC1      CG2O1
   10     9    17    41	 9 ;      NG311     CG2D1O     CG2DC1       HGA4
   12    10    11    18	 9 ;     HGPAM1      NG311      CG314      NG3P3
   12    10    11    13	 9 ;     HGPAM1      NG311      CG314      NG2S0
   12    10    11    37	 9 ;     HGPAM1      NG311      CG314       HGA1
    9    10    11    18	 9 ;     CG2D1O      NG311      CG314      NG3P3
    9    10    11    13	 9 ;     CG2D1O      NG311      CG314      NG2S0
    9    10    11    37	 9 ;     CG2D1O      NG311      CG314       HGA1
   10    11    18    20	 9 ;      NG311      CG314      NG3P3       HGP2
   10    11    18    19	 9 ;      NG311      CG314      NG3P3       HGP2
   10    11    18    42	 9 ;      NG311      CG314      NG3P3       HGP2
   13    11    18    20	 9 ;      NG2S0      CG314      NG3P3       HGP2
   13    11    18    19	 9 ;      NG2S0      CG314      NG3P3       HGP2
   13    11    18    42	 9 ;      NG2S0      CG314      NG3P3       HGP2
   37    11    18    20	 9 ;       HGA1      CG314      NG3P3       HGP2
   37    11    18    19	 9 ;       HGA1      CG314      NG3P3       HGP2
   37    11    18    42	 9 ;       HGA1      CG314      NG3P3       HGP2
   10    11    13    15	 9 ;      NG311      CG314      NG2S0      CG2O1
   10    11    13    14	 9 ;      NG311      CG314      NG2S0      CG331
   18    11    13    15	 9 ;      NG3P3      CG314      NG2S0      CG2O1
   18    11    13    14	 9 ;      NG3P3      CG314      NG2S0      CG331
   37    11    13    15	 9 ;       HGA1      CG314      NG2S0      CG2O1
   37    11    13    14	 9 ;       HGA1      CG314      NG2S0      CG331
   11    13    15    17	 9 ;      CG314      NG2S0      CG2O1     CG2DC1
   11    13    15    16	 9 ;      CG314      NG2S0      CG2O1      OG2D1
   14    13    15    17	 9 ;      CG331      NG2S0      CG2O1     CG2DC1
   14    13    15    16	 9 ;      CG331      NG2S0      CG2O1      OG2D1
   11    13    14    38	 9 ;      CG314      NG2S0      CG331       HGA3
   11    13    14    39	 9 ;      CG314      NG2S0      CG331       HGA3
   11    13    14    40	 9 ;      CG314      NG2S0      CG331       HGA3
   15    13    14    38	 9 ;      CG2O1      NG2S0      CG331       HGA3
   15    13    14    39	 9 ;      CG2O1      NG2S0      CG331       HGA3
   15    13    14    40	 9 ;      CG2O1      NG2S0      CG331       HGA3
   13    15    17     9	 9 ;      NG2S0      CG2O1     CG2DC1     CG2D1O
   13    15    17    41	 9 ;      NG2S0      CG2O1     CG2DC1       HGA4
   16    15    17     9	 9 ;      OG2D1      CG2O1     CG2DC1     CG2D1O
   16    15    17    41	 9 ;      OG2D1      CG2O1     CG2DC1       HGA4
   26    21    22    23	 9 ;     CG2R61     CG2R67     CG2R61     CG2R61
   26    21    22    43	 9 ;     CG2R61     CG2R67     CG2R61      HGR61
    1    21    22    23	 9 ;     CG2R67     CG2R67     CG2R61     CG2R61
    1    21    22    43	 9 ;     CG2R67     CG2R67     CG2R61      HGR61
   22    21    26    25	 9 ;     CG2R61     CG2R67     CG2R61     CG2R61
   22    21    26    46	 9 ;     CG2R61     CG2R67     CG2R61      HGR61
    1    21    26    25	 9 ;     CG2R67     CG2R67     CG2R61     CG2R61
    1    21    26    46	 9 ;     CG2R67     CG2R67     CG2R61      HGR61
   21    22    23    27	 9 ;     CG2R67     CG2R61     CG2R61      OG301
   21    22    23    24	 9 ;     CG2R67     CG2R61     CG2R61     CG2R61
   43    22    23    27	 9 ;      HGR61     CG2R61     CG2R61      OG301
   43    22    23    24	 9 ;      HGR61     CG2R61     CG2R61     CG2R61
   24    23    27    28	 9 ;     CG2R61     CG2R61      OG301      CG331
   22    23    27    28	 9 ;     CG2R61     CG2R61      OG301      CG331
   27    23    24    25	 9 ;      OG301     CG2R61     CG2R61     CG2R61
   27    23    24    44	 9 ;      OG301     CG2R61     CG2R61      HGR61
   22    23    24    25	 9 ;     CG2R61     CG2R61     CG2R61     CG2R61
   22    23    24    44	 9 ;     CG2R61     CG2R61     CG2R61      HGR61
   23    24    25    26	 9 ;     CG2R61     CG2R61     CG2R61     CG2R61
   23    24    25    45	 9 ;     CG2R61     CG2R61     CG2R61      HGR61
   44    24    25    26	 9 ;      HGR61     CG2R61     CG2R61     CG2R61
   44    24    25    45	 9 ;      HGR61     CG2R61     CG2R61      HGR61
   24    25    26    21	 9 ;     CG2R61     CG2R61     CG2R61     CG2R67
   24    25    26    46	 9 ;     CG2R61     CG2R61     CG2R61      HGR61
   45    25    26    21	 9 ;      HGR61     CG2R61     CG2R61     CG2R67
   45    25    26    46	 9 ;      HGR61     CG2R61     CG2R61      HGR61
   23    27    28    47	 9 ;     CG2R61      OG301      CG331       HGA3
   23    27    28    48	 9 ;     CG2R61      OG301      CG331       HGA3
   23    27    28    49	 9 ;     CG2R61      OG301      CG331       HGA3

[ dihedrals ]
;	ai	  aj	ak	  al funct			  c0			c1			  c2			c3
    9    17     8    10	 2
   15    17    13    16	 2

