Green Red Orange Magenta Azure Cyan Skyblue
   49
    1LIG     C1    1  -1.429   0.288  -1.510
    1LIG     C2    2  -1.518   0.361  -1.428
    1LIG     C3    3  -1.656   0.366  -1.454
    1LIG     C4    4  -1.706   0.297  -1.565
    1LIG     C5    5  -1.620   0.226  -1.648
    1LIG     C6    6  -1.483   0.221  -1.621
    1LIG     C7    7  -1.748   0.447  -1.365
    1LIG     C8    8  -1.765   0.387  -1.225
    1LIG     C9    9  -1.900   0.321  -1.204
    1LIG     N1   10  -1.901   0.184  -1.206
    1LIG    C10   11  -2.011   0.121  -1.176
    1LIG     HN   12  -1.816   0.132  -1.231
    1LIG     N2   13  -2.127   0.187  -1.142
    1LIG    C11   14  -2.250   0.119  -1.105
    1LIG    C12   15  -2.134   0.325  -1.146
    1LIG     O1   16  -2.235   0.391  -1.122
    1LIG    C13   17  -2.009   0.394  -1.179
    1LIG     N3   18  -2.005  -0.015  -1.180
    1LIG     H1   19  -2.075  -0.064  -1.125
    1LIG     H2   20  -1.911  -0.047  -1.159
    1LIG    C14   21  -1.284   0.284  -1.480
    1LIG    C15   22  -1.200   0.187  -1.539
    1LIG    C16   23  -1.064   0.178  -1.508
    1LIG    C17   24  -1.008   0.270  -1.420
    1LIG    C18   25  -1.087   0.369  -1.362
    1LIG    C19   26  -1.224   0.375  -1.391
    1LIG     O2   27  -0.977   0.084  -1.557
    1LIG    C20   28  -0.918  -0.004  -1.461
    1LIG     HC   29  -1.479   0.414  -1.343
    1LIG    HC1   30  -1.812   0.300  -1.587
    1LIG    HC2   31  -1.659   0.174  -1.734
    1LIG    HC3   32  -1.418   0.165  -1.686
    1LIG    HC4   33  -1.845   0.454  -1.412
    1LIG    HC5   34  -1.707   0.548  -1.355
    1LIG    HC6   35  -1.687   0.312  -1.210
    1LIG    HC7   36  -1.752   0.465  -1.151
    1LIG    HC8   37  -2.040   0.123  -1.281
    1LIG    HC9   38  -2.327   0.192  -1.082
    1LIG   HC10   39  -2.232   0.057  -1.017
    1LIG   HC11   40  -2.283   0.055  -1.187
    1LIG   HC12   41  -2.004   0.502  -1.182
    1LIG    HN1   42  -2.023  -0.040  -1.276
    1LIG   HC13   43  -1.243   0.117  -1.610
    1LIG   HC14   44  -0.903   0.265  -1.396
    1LIG   HC15   45  -1.043   0.441  -1.295
    1LIG   HC16   46  -1.284   0.452  -1.345
    1LIG   HC17   47  -0.851  -0.073  -1.512
    1LIG   HC18   48  -0.996  -0.059  -1.410
    1LIG   HC19   49  -0.861   0.055  -1.389
   0.00000   0.00000   0.00000
