Great Red Owns Many ACres of Sand 
   81
    1LIG     C1    1  -1.964   0.439  -1.393
    1LIG     C2    2  -1.863   0.543  -1.344
    1LIG     C3    3  -1.721   0.489  -1.354
    1LIG     C4    4  -1.682   0.446  -1.498
    1LIG     C5    5  -1.790   0.345  -1.549
    1LIG     C6    6  -1.933   0.393  -1.535
    1LIG     N1    7  -1.691   0.568  -1.588
    1LIG     H1    8  -1.763   0.634  -1.554
    1LIG     H2    9  -1.604   0.623  -1.581
    1LIG     C7   10  -1.718   0.548  -1.735
    1LIG     C8   11  -1.660   0.669  -1.811
    1LIG     O1   12  -1.641   0.629  -1.947
    1LIG     H3   13  -1.727   0.641  -1.993
    1LIG     C9   14  -1.530   0.722  -1.747
    1LIG    C10   15  -1.405   0.668  -1.818
    1LIG    C11   16  -1.280   0.646  -1.735
    1LIG    C12   17  -1.276   0.664  -1.596
    1LIG    C13   18  -1.161   0.632  -1.524
    1LIG     F1   19  -1.161   0.650  -1.392
    1LIG    C14   20  -1.049   0.581  -1.587
    1LIG    C15   21  -1.052   0.562  -1.724
    1LIG     F2   22  -0.945   0.511  -1.787
    1LIG    C16   23  -1.166   0.594  -1.798
    1LIG     N2   24  -1.533   0.870  -1.744
    1LIG    C17   25  -1.601   0.938  -1.646
    1LIG     O2   26  -1.660   0.880  -1.555
    1LIG    C18   27  -1.599   1.088  -1.659
    1LIG     H4   28  -1.487   0.923  -1.818
    1LIG    C19   29  -1.548   0.374  -1.507
    1LIG    C20   30  -1.462   0.373  -1.396
    1LIG    C21   31  -1.330   0.326  -1.403
    1LIG    C22   32  -1.280   0.294  -1.530
    1LIG    C23   33  -1.364   0.287  -1.640
    1LIG    C24   34  -1.499   0.319  -1.627
    1LIG    C25   35  -1.251   0.290  -1.276
    1LIG    C26   36  -1.238   0.423  -1.198
    1LIG    C27   37  -1.322   0.185  -1.189
    1LIG    C28   38  -1.108   0.238  -1.304
    1LIG     N3   39  -2.103   0.486  -1.379
    1LIG     H5   40  -2.134   0.537  -1.462
    1LIG      S   41  -2.222   0.378  -1.326
    1LIG     O3   42  -2.158   0.275  -1.249
    1LIG     O4   43  -2.302   0.345  -1.443
    1LIG    C29   44  -2.319   0.481  -1.219
    1LIG     HC   45  -1.953   0.352  -1.329
    1LIG    HC2   46  -1.885   0.568  -1.240
    1LIG    HC3   47  -1.872   0.633  -1.405
    1LIG    HC4   48  -1.712   0.402  -1.288
    1LIG    HC5   49  -1.651   0.566  -1.320
    1LIG    HC6   50  -1.779   0.252  -1.492
    1LIG    HC7   51  -1.770   0.323  -1.654
    1LIG    HC8   52  -1.949   0.476  -1.604
    1LIG    HC9   53  -2.001   0.312  -1.562
    1LIG   HC10   54  -1.669   0.456  -1.769
    1LIG   HC11   55  -1.825   0.541  -1.752
    1LIG    HC1   56  -1.734   0.749  -1.809
    1LIG   HC12   57  -1.527   0.688  -1.643
    1LIG   HC13   58  -1.379   0.738  -1.897
    1LIG   HC14   59  -1.431   0.573  -1.864
    1LIG   HC15   60  -1.363   0.702  -1.545
    1LIG   HC16   61  -0.960   0.556  -1.530
    1LIG   HC17   62  -1.166   0.579  -1.905
    1LIG   HC18   63  -1.499   0.409  -1.301
    1LIG   HC19   64  -1.174   0.275  -1.542
    1LIG   HC20   65  -1.325   0.256  -1.736
    1LIG   HC21   66  -1.566   0.303  -1.710
    1LIG   HC22   67  -1.054   0.310  -1.365
    1LIG   HC23   68  -1.113   0.142  -1.356
    1LIG   HC24   69  -1.056   0.225  -1.209
    1LIG   HC25   70  -1.655   1.133  -1.577
    1LIG   HC26   71  -1.644   1.117  -1.754
    1LIG   HC27   72  -1.496   1.123  -1.656
    1LIG   HC28   73  -2.401   0.423  -1.177
    1LIG   HC29   74  -2.257   0.519  -1.138
    1LIG   HC30   75  -2.359   0.565  -1.276
    1LIG   HC31   76  -1.424   0.218  -1.168
    1LIG   HC32   77  -1.326   0.090  -1.242
    1LIG   HC33   78  -1.268   0.172  -1.096
    1LIG   HC34   79  -1.338   0.462  -1.177
    1LIG   HC35   80  -1.186   0.405  -1.104
    1LIG   HC36   81  -1.182   0.495  -1.258
   0.00000   0.00000   0.00000
