; Created by cgenff_charmm2gmx.py

[ moleculetype ]
; Name			   nrexcl
LIG				 3

[ atoms ]
;	 nr		  type	resnr residue  atom   cgnr	   charge		mass  typeB    chargeB		massB
; residue	 1 LIG rtp LIG q	qsum
     1      CG311      1    LIG     C1      1      0.214     12.011   ;
     2      CG321      1    LIG     C2      2     -0.209     12.011   ;
     3      CG321      1    LIG     C3      3     -0.148     12.011   ;
     4      CG301      1    LIG     C4      4      0.289     12.011   ;
     5      CG321      1    LIG     C5      5     -0.148     12.011   ;
     6      CG321      1    LIG     C6      6     -0.209     12.011   ;
     7      NG3P2      1    LIG     N1      7     -0.450     14.007   ;
     8       HGP2      1    LIG     H1      8      0.341      1.008   ;
     9       HGP2      1    LIG     H2      9      0.341      1.008   ;
    10      CG324      1    LIG     C7     10      0.208     12.011   ;
    11      CG311      1    LIG     C8     11      0.089     12.011   ;
    12      OG311      1    LIG     O1     12     -0.625     15.999   ;
    13       HGP1      1    LIG     H3     13      0.415      1.008   ;
    14      CG311      1    LIG     C9     14     -0.007     12.011   ;
    15      CG321      1    LIG    C10     15     -0.153     12.011   ;
    16     CG2R61      1    LIG    C11     16      0.057     12.011   ;
    17     CG2R61      1    LIG    C12     17     -0.218     12.011   ;
    18     CG2R66      1    LIG    C13     18      0.261     12.011   ;
    19       FGR1      1    LIG     F1     19     -0.210     18.998   ;
    20     CG2R61      1    LIG    C14     20     -0.240     12.011   ;
    21     CG2R66      1    LIG    C15     21      0.261     12.011   ;
    22       FGR1      1    LIG     F2     22     -0.210     18.998   ;
    23     CG2R61      1    LIG    C16     23     -0.218     12.011   ;
    24      NG2S1      1    LIG     N2     24     -0.339     14.007   ;
    25      CG2O1      1    LIG    C17     25      0.488     12.011   ;
    26      OG2D1      1    LIG     O2     26     -0.509     15.999   ;
    27      CG331      1    LIG    C18     27     -0.270     12.011   ;
    28       HGP1      1    LIG     H4     28      0.261      1.008   ;
    29     CG2R61      1    LIG    C19     29      0.085     12.011   ;
    30     CG2R61      1    LIG    C20     30     -0.134     12.011   ;
    31     CG2R61      1    LIG    C21     31      0.082     12.011   ;
    32     CG2R61      1    LIG    C22     32     -0.121     12.011   ;
    33     CG2R61      1    LIG    C23     33     -0.110     12.011   ;
    34     CG2R61      1    LIG    C24     34     -0.129     12.011   ;
    35      CG301      1    LIG    C25     35     -0.018     12.011   ;
    36      CG331      1    LIG    C26     36     -0.289     12.011   ;
    37      CG331      1    LIG    C27     37     -0.289     12.011   ;
    38      CG331      1    LIG    C28     38     -0.289     12.011   ;
    39      NG311      1    LIG     N3     39     -0.670     14.007   ;
    40       HGP1      1    LIG     H5     40      0.321      1.008   ;
    41      SG3O2      1    LIG      S     41      0.601     32.060   ;
    42      OG2P1      1    LIG     O3     42     -0.394     15.999   ;
    43      OG2P1      1    LIG     O4     43     -0.394     15.999   ;
    44      CG331      1    LIG    C29     44     -0.012     12.011   ;
    45       HGA1      1    LIG     HC     45      0.090      1.008   ;
    46       HGA2      1    LIG    HC2     46      0.090      1.008   ;
    47       HGA2      1    LIG    HC3     47      0.090      1.008   ;
    48       HGA2      1    LIG    HC4     48      0.090      1.008   ;
    49       HGA2      1    LIG    HC5     49      0.090      1.008   ;
    50       HGA2      1    LIG    HC6     50      0.090      1.008   ;
    51       HGA2      1    LIG    HC7     51      0.090      1.008   ;
    52       HGA2      1    LIG    HC8     52      0.090      1.008   ;
    53       HGA2      1    LIG    HC9     53      0.090      1.008   ;
    54       HGA2      1    LIG   HC10     54      0.090      1.008   ;
    55       HGA2      1    LIG   HC11     55      0.090      1.008   ;
    56       HGA1      1    LIG    HC1     56      0.090      1.008   ;
    57       HGA1      1    LIG   HC12     57      0.090      1.008   ;
    58       HGA2      1    LIG   HC13     58      0.090      1.008   ;
    59       HGA2      1    LIG   HC14     59      0.090      1.008   ;
    60      HGR62      1    LIG   HC15     60      0.174      1.008   ;
    61      HGR62      1    LIG   HC16     61      0.186      1.008   ;
    62      HGR62      1    LIG   HC17     62      0.174      1.008   ;
    63      HGR61      1    LIG   HC18     63      0.116      1.008   ;
    64      HGR61      1    LIG   HC19     64      0.116      1.008   ;
    65      HGR61      1    LIG   HC20     65      0.116      1.008   ;
    66      HGR61      1    LIG   HC21     66      0.116      1.008   ;
    67       HGA3      1    LIG   HC22     67      0.090      1.008   ;
    68       HGA3      1    LIG   HC23     68      0.090      1.008   ;
    69       HGA3      1    LIG   HC24     69      0.090      1.008   ;
    70       HGA3      1    LIG   HC25     70      0.090      1.008   ;
    71       HGA3      1    LIG   HC26     71      0.090      1.008   ;
    72       HGA3      1    LIG   HC27     72      0.090      1.008   ;
    73       HGA3      1    LIG   HC28     73      0.090      1.008   ;
    74       HGA3      1    LIG   HC29     74      0.090      1.008   ;
    75       HGA3      1    LIG   HC30     75      0.090      1.008   ;
    76       HGA3      1    LIG   HC31     76      0.090      1.008   ;
    77       HGA3      1    LIG   HC32     77      0.090      1.008   ;
    78       HGA3      1    LIG   HC33     78      0.090      1.008   ;
    79       HGA3      1    LIG   HC34     79      0.090      1.008   ;
    80       HGA3      1    LIG   HC35     80      0.090      1.008   ;
    81       HGA3      1    LIG   HC36     81      0.090      1.008   ;

[ bonds ]
;	ai	  aj funct			  c0			c1			  c2			c3
    1     6	 1 ;       CG311      CG321
    1     2	 1 ;       CG311      CG321
    1    39	 1 ;       CG311      NG311
    1    45	 1 ;       CG311       HGA1
    2     3	 1 ;       CG321      CG321
    2    46	 1 ;       CG321       HGA2
    2    47	 1 ;       CG321       HGA2
    3     4	 1 ;       CG321      CG301
    3    48	 1 ;       CG321       HGA2
    3    49	 1 ;       CG321       HGA2
    4    29	 1 ;       CG301     CG2R61
    4     7	 1 ;       CG301      NG3P2
    4     5	 1 ;       CG301      CG321
    5     6	 1 ;       CG321      CG321
    5    50	 1 ;       CG321       HGA2
    5    51	 1 ;       CG321       HGA2
    6    52	 1 ;       CG321       HGA2
    6    53	 1 ;       CG321       HGA2
    7    10	 1 ;       NG3P2      CG324
    7     9	 1 ;       NG3P2       HGP2
    7     8	 1 ;       NG3P2       HGP2
   10    11	 1 ;       CG324      CG311
   10    54	 1 ;       CG324       HGA2
   10    55	 1 ;       CG324       HGA2
   11    12	 1 ;       CG311      OG311
   11    14	 1 ;       CG311      CG311
   11    56	 1 ;       CG311       HGA1
   12    13	 1 ;       OG311       HGP1
   14    15	 1 ;       CG311      CG321
   14    24	 1 ;       CG311      NG2S1
   14    57	 1 ;       CG311       HGA1
   15    16	 1 ;       CG321     CG2R61
   15    58	 1 ;       CG321       HGA2
   15    59	 1 ;       CG321       HGA2
   16    23	 1 ;      CG2R61     CG2R61
   16    17	 1 ;      CG2R61     CG2R61
   17    18	 1 ;      CG2R61     CG2R66
   17    60	 1 ;      CG2R61      HGR62
   18    20	 1 ;      CG2R66     CG2R61
   18    19	 1 ;      CG2R66       FGR1
   20    21	 1 ;      CG2R61     CG2R66
   20    61	 1 ;      CG2R61      HGR62
   21    22	 1 ;      CG2R66       FGR1
   21    23	 1 ;      CG2R66     CG2R61
   23    62	 1 ;      CG2R61      HGR62
   24    28	 1 ;       NG2S1       HGP1
   24    25	 1 ;       NG2S1      CG2O1
   25    27	 1 ;       CG2O1      CG331
   25    26	 1 ;       CG2O1      OG2D1
   27    70	 1 ;       CG331       HGA3
   27    71	 1 ;       CG331       HGA3
   27    72	 1 ;       CG331       HGA3
   29    34	 1 ;      CG2R61     CG2R61
   29    30	 1 ;      CG2R61     CG2R61
   30    31	 1 ;      CG2R61     CG2R61
   30    63	 1 ;      CG2R61      HGR61
   31    32	 1 ;      CG2R61     CG2R61
   31    35	 1 ;      CG2R61      CG301
   32    33	 1 ;      CG2R61     CG2R61
   32    64	 1 ;      CG2R61      HGR61
   33    34	 1 ;      CG2R61     CG2R61
   33    65	 1 ;      CG2R61      HGR61
   34    66	 1 ;      CG2R61      HGR61
   35    38	 1 ;       CG301      CG331
   35    36	 1 ;       CG301      CG331
   35    37	 1 ;       CG301      CG331
   36    79	 1 ;       CG331       HGA3
   36    80	 1 ;       CG331       HGA3
   36    81	 1 ;       CG331       HGA3
   37    76	 1 ;       CG331       HGA3
   37    77	 1 ;       CG331       HGA3
   37    78	 1 ;       CG331       HGA3
   38    67	 1 ;       CG331       HGA3
   38    68	 1 ;       CG331       HGA3
   38    69	 1 ;       CG331       HGA3
   39    40	 1 ;       NG311       HGP1
   39    41	 1 ;       NG311      SG3O2
   41    43	 1 ;       SG3O2      OG2P1
   41    42	 1 ;       SG3O2      OG2P1
   41    44	 1 ;       SG3O2      CG331
   44    73	 1 ;       CG331       HGA3
   44    74	 1 ;       CG331       HGA3
   44    75	 1 ;       CG331       HGA3

[ pairs ]
;	ai	  aj funct			  c0			c1			  c2			c3
    1     4	 1
    1    48	 1
    1    49	 1
    1    50	 1
    1    51	 1
    1    43	 1
    1    42	 1
    1    44	 1
    2     5	 1
    2    52	 1
    2    53	 1
    2    40	 1
    2    41	 1
    2    29	 1
    2     7	 1
    3     6	 1
    3    39	 1
    3    45	 1
    3    34	 1
    3    30	 1
    3    10	 1
    3     9	 1
    3     8	 1
    3    50	 1
    3    51	 1
    4    46	 1
    4    47	 1
    4    52	 1
    4    53	 1
    4    11	 1
    4    54	 1
    4    55	 1
    4    33	 1
    4    66	 1
    4    31	 1
    4    63	 1
    5    39	 1
    5    45	 1
    5    48	 1
    5    49	 1
    5    34	 1
    5    30	 1
    5    10	 1
    5     9	 1
    5     8	 1
    6    46	 1
    6    47	 1
    6    40	 1
    6    41	 1
    6    29	 1
    6     7	 1
    7    48	 1
    7    49	 1
    7    34	 1
    7    30	 1
    7    50	 1
    7    51	 1
    7    12	 1
    7    14	 1
    7    56	 1
    8    29	 1
    8    11	 1
    8    54	 1
    8    55	 1
    9    29	 1
    9    11	 1
    9    54	 1
    9    55	 1
   10    29	 1
   10    13	 1
   10    15	 1
   10    24	 1
   10    57	 1
   11    16	 1
   11    58	 1
   11    59	 1
   11    28	 1
   11    25	 1
   12    54	 1
   12    55	 1
   12    15	 1
   12    24	 1
   12    57	 1
   13    14	 1
   13    56	 1
   14    54	 1
   14    55	 1
   14    23	 1
   14    17	 1
   14    27	 1
   14    26	 1
   15    56	 1
   15    28	 1
   15    25	 1
   15    21	 1
   15    62	 1
   15    18	 1
   15    60	 1
   16    24	 1
   16    57	 1
   16    20	 1
   16    19	 1
   16    22	 1
   17    58	 1
   17    59	 1
   17    21	 1
   17    62	 1
   17    61	 1
   18    23	 1
   18    22	 1
   19    60	 1
   19    21	 1
   19    61	 1
   20    60	 1
   20    62	 1
   22    61	 1
   22    62	 1
   23    58	 1
   23    59	 1
   23    60	 1
   23    61	 1
   24    56	 1
   24    58	 1
   24    59	 1
   24    70	 1
   24    71	 1
   24    72	 1
   25    57	 1
   26    28	 1
   26    70	 1
   26    71	 1
   26    72	 1
   27    28	 1
   28    57	 1
   29    48	 1
   29    49	 1
   29    50	 1
   29    51	 1
   29    32	 1
   29    35	 1
   29    65	 1
   30    33	 1
   30    66	 1
   30    64	 1
   30    38	 1
   30    36	 1
   30    37	 1
   31    34	 1
   31    65	 1
   31    67	 1
   31    68	 1
   31    69	 1
   31    79	 1
   31    80	 1
   31    81	 1
   31    76	 1
   31    77	 1
   31    78	 1
   32    63	 1
   32    38	 1
   32    36	 1
   32    37	 1
   32    66	 1
   33    35	 1
   34    63	 1
   34    64	 1
   35    63	 1
   35    64	 1
   36    67	 1
   36    68	 1
   36    69	 1
   36    76	 1
   36    77	 1
   36    78	 1
   37    67	 1
   37    68	 1
   37    69	 1
   37    79	 1
   37    80	 1
   37    81	 1
   38    79	 1
   38    80	 1
   38    81	 1
   38    76	 1
   38    77	 1
   38    78	 1
   39    52	 1
   39    53	 1
   39    46	 1
   39    47	 1
   39    73	 1
   39    74	 1
   39    75	 1
   40    45	 1
   40    43	 1
   40    42	 1
   40    44	 1
   41    45	 1
   42    73	 1
   42    74	 1
   42    75	 1
   43    73	 1
   43    74	 1
   43    75	 1
   45    52	 1
   45    53	 1
   45    46	 1
   45    47	 1
   46    48	 1
   46    49	 1
   47    48	 1
   47    49	 1
   50    52	 1
   50    53	 1
   51    52	 1
   51    53	 1
   54    56	 1
   55    56	 1
   56    57	 1
   57    58	 1
   57    59	 1
   64    65	 1
   65    66	 1

[ angles ]
;	ai	  aj	ak funct			c0			  c1			c2			  c3
    6     1     2	5 ;      CG321      CG311      CG321
    6     1    39	5 ;      CG321      CG311      NG311
    6     1    45	5 ;      CG321      CG311       HGA1
    2     1    39	5 ;      CG321      CG311      NG311
    2     1    45	5 ;      CG321      CG311       HGA1
   39     1    45	5 ;      NG311      CG311       HGA1
    3     2     1	5 ;      CG321      CG321      CG311
    3     2    46	5 ;      CG321      CG321       HGA2
    3     2    47	5 ;      CG321      CG321       HGA2
    1     2    46	5 ;      CG311      CG321       HGA2
    1     2    47	5 ;      CG311      CG321       HGA2
   46     2    47	5 ;       HGA2      CG321       HGA2
    4     3     2	5 ;      CG301      CG321      CG321
    4     3    48	5 ;      CG301      CG321       HGA2
    4     3    49	5 ;      CG301      CG321       HGA2
    2     3    48	5 ;      CG321      CG321       HGA2
    2     3    49	5 ;      CG321      CG321       HGA2
   48     3    49	5 ;       HGA2      CG321       HGA2
   29     4     7	5 ;     CG2R61      CG301      NG3P2
   29     4     5	5 ;     CG2R61      CG301      CG321
   29     4     3	5 ;     CG2R61      CG301      CG321
    7     4     5	5 ;      NG3P2      CG301      CG321
    7     4     3	5 ;      NG3P2      CG301      CG321
    5     4     3	5 ;      CG321      CG301      CG321
    4     5     6	5 ;      CG301      CG321      CG321
    4     5    50	5 ;      CG301      CG321       HGA2
    4     5    51	5 ;      CG301      CG321       HGA2
    6     5    50	5 ;      CG321      CG321       HGA2
    6     5    51	5 ;      CG321      CG321       HGA2
   50     5    51	5 ;       HGA2      CG321       HGA2
    5     6     1	5 ;      CG321      CG321      CG311
    5     6    52	5 ;      CG321      CG321       HGA2
    5     6    53	5 ;      CG321      CG321       HGA2
    1     6    52	5 ;      CG311      CG321       HGA2
    1     6    53	5 ;      CG311      CG321       HGA2
   52     6    53	5 ;       HGA2      CG321       HGA2
   10     7     9	5 ;      CG324      NG3P2       HGP2
   10     7     4	5 ;      CG324      NG3P2      CG301
   10     7     8	5 ;      CG324      NG3P2       HGP2
    9     7     4	5 ;       HGP2      NG3P2      CG301
    9     7     8	5 ;       HGP2      NG3P2       HGP2
    4     7     8	5 ;      CG301      NG3P2       HGP2
   11    10     7	5 ;      CG311      CG324      NG3P2
   11    10    54	5 ;      CG311      CG324       HGA2
   11    10    55	5 ;      CG311      CG324       HGA2
    7    10    54	5 ;      NG3P2      CG324       HGA2
    7    10    55	5 ;      NG3P2      CG324       HGA2
   54    10    55	5 ;       HGA2      CG324       HGA2
   12    11    14	5 ;      OG311      CG311      CG311
   12    11    10	5 ;      OG311      CG311      CG324
   12    11    56	5 ;      OG311      CG311       HGA1
   14    11    10	5 ;      CG311      CG311      CG324
   14    11    56	5 ;      CG311      CG311       HGA1
   10    11    56	5 ;      CG324      CG311       HGA1
   13    12    11	5 ;       HGP1      OG311      CG311
   15    14    24	5 ;      CG321      CG311      NG2S1
   15    14    11	5 ;      CG321      CG311      CG311
   15    14    57	5 ;      CG321      CG311       HGA1
   24    14    11	5 ;      NG2S1      CG311      CG311
   24    14    57	5 ;      NG2S1      CG311       HGA1
   11    14    57	5 ;      CG311      CG311       HGA1
   16    15    14	5 ;     CG2R61      CG321      CG311
   16    15    58	5 ;     CG2R61      CG321       HGA2
   16    15    59	5 ;     CG2R61      CG321       HGA2
   14    15    58	5 ;      CG311      CG321       HGA2
   14    15    59	5 ;      CG311      CG321       HGA2
   58    15    59	5 ;       HGA2      CG321       HGA2
   23    16    15	5 ;     CG2R61     CG2R61      CG321
   23    16    17	5 ;     CG2R61     CG2R61     CG2R61
   15    16    17	5 ;      CG321     CG2R61     CG2R61
   16    17    18	5 ;     CG2R61     CG2R61     CG2R66
   16    17    60	5 ;     CG2R61     CG2R61      HGR62
   18    17    60	5 ;     CG2R66     CG2R61      HGR62
   20    18    17	5 ;     CG2R61     CG2R66     CG2R61
   20    18    19	5 ;     CG2R61     CG2R66       FGR1
   17    18    19	5 ;     CG2R61     CG2R66       FGR1
   21    20    18	5 ;     CG2R66     CG2R61     CG2R66
   21    20    61	5 ;     CG2R66     CG2R61      HGR62
   18    20    61	5 ;     CG2R66     CG2R61      HGR62
   22    21    23	5 ;       FGR1     CG2R66     CG2R61
   22    21    20	5 ;       FGR1     CG2R66     CG2R61
   23    21    20	5 ;     CG2R61     CG2R66     CG2R61
   21    23    16	5 ;     CG2R66     CG2R61     CG2R61
   21    23    62	5 ;     CG2R66     CG2R61      HGR62
   16    23    62	5 ;     CG2R61     CG2R61      HGR62
   28    24    14	5 ;       HGP1      NG2S1      CG311
   28    24    25	5 ;       HGP1      NG2S1      CG2O1
   14    24    25	5 ;      CG311      NG2S1      CG2O1
   24    25    27	5 ;      NG2S1      CG2O1      CG331
   24    25    26	5 ;      NG2S1      CG2O1      OG2D1
   27    25    26	5 ;      CG331      CG2O1      OG2D1
   25    27    70	5 ;      CG2O1      CG331       HGA3
   25    27    71	5 ;      CG2O1      CG331       HGA3
   25    27    72	5 ;      CG2O1      CG331       HGA3
   70    27    71	5 ;       HGA3      CG331       HGA3
   70    27    72	5 ;       HGA3      CG331       HGA3
   71    27    72	5 ;       HGA3      CG331       HGA3
   34    29    30	5 ;     CG2R61     CG2R61     CG2R61
   34    29     4	5 ;     CG2R61     CG2R61      CG301
   30    29     4	5 ;     CG2R61     CG2R61      CG301
   31    30    29	5 ;     CG2R61     CG2R61     CG2R61
   31    30    63	5 ;     CG2R61     CG2R61      HGR61
   29    30    63	5 ;     CG2R61     CG2R61      HGR61
   32    31    35	5 ;     CG2R61     CG2R61      CG301
   32    31    30	5 ;     CG2R61     CG2R61     CG2R61
   35    31    30	5 ;      CG301     CG2R61     CG2R61
   33    32    31	5 ;     CG2R61     CG2R61     CG2R61
   33    32    64	5 ;     CG2R61     CG2R61      HGR61
   31    32    64	5 ;     CG2R61     CG2R61      HGR61
   32    33    34	5 ;     CG2R61     CG2R61     CG2R61
   32    33    65	5 ;     CG2R61     CG2R61      HGR61
   34    33    65	5 ;     CG2R61     CG2R61      HGR61
   33    34    29	5 ;     CG2R61     CG2R61     CG2R61
   33    34    66	5 ;     CG2R61     CG2R61      HGR61
   29    34    66	5 ;     CG2R61     CG2R61      HGR61
   38    35    31	5 ;      CG331      CG301     CG2R61
   38    35    36	5 ;      CG331      CG301      CG331
   38    35    37	5 ;      CG331      CG301      CG331
   31    35    36	5 ;     CG2R61      CG301      CG331
   31    35    37	5 ;     CG2R61      CG301      CG331
   36    35    37	5 ;      CG331      CG301      CG331
   35    36    79	5 ;      CG301      CG331       HGA3
   35    36    80	5 ;      CG301      CG331       HGA3
   35    36    81	5 ;      CG301      CG331       HGA3
   79    36    80	5 ;       HGA3      CG331       HGA3
   79    36    81	5 ;       HGA3      CG331       HGA3
   80    36    81	5 ;       HGA3      CG331       HGA3
   35    37    76	5 ;      CG301      CG331       HGA3
   35    37    77	5 ;      CG301      CG331       HGA3
   35    37    78	5 ;      CG301      CG331       HGA3
   76    37    77	5 ;       HGA3      CG331       HGA3
   76    37    78	5 ;       HGA3      CG331       HGA3
   77    37    78	5 ;       HGA3      CG331       HGA3
   35    38    67	5 ;      CG301      CG331       HGA3
   35    38    68	5 ;      CG301      CG331       HGA3
   35    38    69	5 ;      CG301      CG331       HGA3
   67    38    68	5 ;       HGA3      CG331       HGA3
   67    38    69	5 ;       HGA3      CG331       HGA3
   68    38    69	5 ;       HGA3      CG331       HGA3
    1    39    40	5 ;      CG311      NG311       HGP1
    1    39    41	5 ;      CG311      NG311      SG3O2
   40    39    41	5 ;       HGP1      NG311      SG3O2
   39    41    43	5 ;      NG311      SG3O2      OG2P1
   39    41    42	5 ;      NG311      SG3O2      OG2P1
   39    41    44	5 ;      NG311      SG3O2      CG331
   43    41    42	5 ;      OG2P1      SG3O2      OG2P1
   43    41    44	5 ;      OG2P1      SG3O2      CG331
   42    41    44	5 ;      OG2P1      SG3O2      CG331
   41    44    73	5 ;      SG3O2      CG331       HGA3
   41    44    74	5 ;      SG3O2      CG331       HGA3
   41    44    75	5 ;      SG3O2      CG331       HGA3
   73    44    74	5 ;       HGA3      CG331       HGA3
   73    44    75	5 ;       HGA3      CG331       HGA3
   74    44    75	5 ;       HGA3      CG331       HGA3

[ dihedrals ]
;	ai	  aj	ak	  al funct			  c0			c1			  c2			c3			  c4			c5
    2     1     6     5	 9 ;      CG321      CG311      CG321      CG321
    2     1     6    52	 9 ;      CG321      CG311      CG321       HGA2
    2     1     6    53	 9 ;      CG321      CG311      CG321       HGA2
   39     1     6     5	 9 ;      NG311      CG311      CG321      CG321
   39     1     6    52	 9 ;      NG311      CG311      CG321       HGA2
   39     1     6    53	 9 ;      NG311      CG311      CG321       HGA2
   45     1     6     5	 9 ;       HGA1      CG311      CG321      CG321
   45     1     6    52	 9 ;       HGA1      CG311      CG321       HGA2
   45     1     6    53	 9 ;       HGA1      CG311      CG321       HGA2
    6     1     2     3	 9 ;      CG321      CG311      CG321      CG321
    6     1     2    46	 9 ;      CG321      CG311      CG321       HGA2
    6     1     2    47	 9 ;      CG321      CG311      CG321       HGA2
   39     1     2     3	 9 ;      NG311      CG311      CG321      CG321
   39     1     2    46	 9 ;      NG311      CG311      CG321       HGA2
   39     1     2    47	 9 ;      NG311      CG311      CG321       HGA2
   45     1     2     3	 9 ;       HGA1      CG311      CG321      CG321
   45     1     2    46	 9 ;       HGA1      CG311      CG321       HGA2
   45     1     2    47	 9 ;       HGA1      CG311      CG321       HGA2
    6     1    39    40	 9 ;      CG321      CG311      NG311       HGP1
    6     1    39    41	 9 ;      CG321      CG311      NG311      SG3O2
    2     1    39    40	 9 ;      CG321      CG311      NG311       HGP1
    2     1    39    41	 9 ;      CG321      CG311      NG311      SG3O2
   45     1    39    40	 9 ;       HGA1      CG311      NG311       HGP1
   45     1    39    41	 9 ;       HGA1      CG311      NG311      SG3O2
    1     2     3     4	 9 ;      CG311      CG321      CG321      CG301
    1     2     3    48	 9 ;      CG311      CG321      CG321       HGA2
    1     2     3    49	 9 ;      CG311      CG321      CG321       HGA2
   46     2     3     4	 9 ;       HGA2      CG321      CG321      CG301
   46     2     3    48	 9 ;       HGA2      CG321      CG321       HGA2
   46     2     3    49	 9 ;       HGA2      CG321      CG321       HGA2
   47     2     3     4	 9 ;       HGA2      CG321      CG321      CG301
   47     2     3    48	 9 ;       HGA2      CG321      CG321       HGA2
   47     2     3    49	 9 ;       HGA2      CG321      CG321       HGA2
    2     3     4    29	 9 ;      CG321      CG321      CG301     CG2R61
    2     3     4     7	 9 ;      CG321      CG321      CG301      NG3P2
    2     3     4     5	 9 ;      CG321      CG321      CG301      CG321
   48     3     4    29	 9 ;       HGA2      CG321      CG301     CG2R61
   48     3     4     7	 9 ;       HGA2      CG321      CG301      NG3P2
   48     3     4     5	 9 ;       HGA2      CG321      CG301      CG321
   49     3     4    29	 9 ;       HGA2      CG321      CG301     CG2R61
   49     3     4     7	 9 ;       HGA2      CG321      CG301      NG3P2
   49     3     4     5	 9 ;       HGA2      CG321      CG301      CG321
    7     4    29    34	 9 ;      NG3P2      CG301     CG2R61     CG2R61
    7     4    29    30	 9 ;      NG3P2      CG301     CG2R61     CG2R61
    5     4    29    34	 9 ;      CG321      CG301     CG2R61     CG2R61
    5     4    29    30	 9 ;      CG321      CG301     CG2R61     CG2R61
    3     4    29    34	 9 ;      CG321      CG301     CG2R61     CG2R61
    3     4    29    30	 9 ;      CG321      CG301     CG2R61     CG2R61
   29     4     7    10	 9 ;     CG2R61      CG301      NG3P2      CG324
   29     4     7     9	 9 ;     CG2R61      CG301      NG3P2       HGP2
   29     4     7     8	 9 ;     CG2R61      CG301      NG3P2       HGP2
    5     4     7    10	 9 ;      CG321      CG301      NG3P2      CG324
    5     4     7     9	 9 ;      CG321      CG301      NG3P2       HGP2
    5     4     7     8	 9 ;      CG321      CG301      NG3P2       HGP2
    3     4     7    10	 9 ;      CG321      CG301      NG3P2      CG324
    3     4     7     9	 9 ;      CG321      CG301      NG3P2       HGP2
    3     4     7     8	 9 ;      CG321      CG301      NG3P2       HGP2
   29     4     5     6	 9 ;     CG2R61      CG301      CG321      CG321
   29     4     5    50	 9 ;     CG2R61      CG301      CG321       HGA2
   29     4     5    51	 9 ;     CG2R61      CG301      CG321       HGA2
    7     4     5     6	 9 ;      NG3P2      CG301      CG321      CG321
    7     4     5    50	 9 ;      NG3P2      CG301      CG321       HGA2
    7     4     5    51	 9 ;      NG3P2      CG301      CG321       HGA2
    3     4     5     6	 9 ;      CG321      CG301      CG321      CG321
    3     4     5    50	 9 ;      CG321      CG301      CG321       HGA2
    3     4     5    51	 9 ;      CG321      CG301      CG321       HGA2
    4     5     6     1	 9 ;      CG301      CG321      CG321      CG311
    4     5     6    52	 9 ;      CG301      CG321      CG321       HGA2
    4     5     6    53	 9 ;      CG301      CG321      CG321       HGA2
   50     5     6     1	 9 ;       HGA2      CG321      CG321      CG311
   50     5     6    52	 9 ;       HGA2      CG321      CG321       HGA2
   50     5     6    53	 9 ;       HGA2      CG321      CG321       HGA2
   51     5     6     1	 9 ;       HGA2      CG321      CG321      CG311
   51     5     6    52	 9 ;       HGA2      CG321      CG321       HGA2
   51     5     6    53	 9 ;       HGA2      CG321      CG321       HGA2
    9     7    10    11	 9 ;       HGP2      NG3P2      CG324      CG311
    9     7    10    54	 9 ;       HGP2      NG3P2      CG324       HGA2
    9     7    10    55	 9 ;       HGP2      NG3P2      CG324       HGA2
    4     7    10    11	 9 ;      CG301      NG3P2      CG324      CG311
    4     7    10    54	 9 ;      CG301      NG3P2      CG324       HGA2
    4     7    10    55	 9 ;      CG301      NG3P2      CG324       HGA2
    8     7    10    11	 9 ;       HGP2      NG3P2      CG324      CG311
    8     7    10    54	 9 ;       HGP2      NG3P2      CG324       HGA2
    8     7    10    55	 9 ;       HGP2      NG3P2      CG324       HGA2
    7    10    11    12	 9 ;      NG3P2      CG324      CG311      OG311
    7    10    11    14	 9 ;      NG3P2      CG324      CG311      CG311
    7    10    11    56	 9 ;      NG3P2      CG324      CG311       HGA1
   54    10    11    12	 9 ;       HGA2      CG324      CG311      OG311
   54    10    11    14	 9 ;       HGA2      CG324      CG311      CG311
   54    10    11    56	 9 ;       HGA2      CG324      CG311       HGA1
   55    10    11    12	 9 ;       HGA2      CG324      CG311      OG311
   55    10    11    14	 9 ;       HGA2      CG324      CG311      CG311
   55    10    11    56	 9 ;       HGA2      CG324      CG311       HGA1
   14    11    12    13	 9 ;      CG311      CG311      OG311       HGP1
   10    11    12    13	 9 ;      CG324      CG311      OG311       HGP1
   56    11    12    13	 9 ;       HGA1      CG311      OG311       HGP1
   12    11    14    15	 9 ;      OG311      CG311      CG311      CG321
   12    11    14    24	 9 ;      OG311      CG311      CG311      NG2S1
   12    11    14    57	 9 ;      OG311      CG311      CG311       HGA1
   10    11    14    15	 9 ;      CG324      CG311      CG311      CG321
   10    11    14    24	 9 ;      CG324      CG311      CG311      NG2S1
   10    11    14    57	 9 ;      CG324      CG311      CG311       HGA1
   56    11    14    15	 9 ;       HGA1      CG311      CG311      CG321
   56    11    14    24	 9 ;       HGA1      CG311      CG311      NG2S1
   56    11    14    57	 9 ;       HGA1      CG311      CG311       HGA1
   24    14    15    16	 9 ;      NG2S1      CG311      CG321     CG2R61
   24    14    15    58	 9 ;      NG2S1      CG311      CG321       HGA2
   24    14    15    59	 9 ;      NG2S1      CG311      CG321       HGA2
   11    14    15    16	 9 ;      CG311      CG311      CG321     CG2R61
   11    14    15    58	 9 ;      CG311      CG311      CG321       HGA2
   11    14    15    59	 9 ;      CG311      CG311      CG321       HGA2
   57    14    15    16	 9 ;       HGA1      CG311      CG321     CG2R61
   57    14    15    58	 9 ;       HGA1      CG311      CG321       HGA2
   57    14    15    59	 9 ;       HGA1      CG311      CG321       HGA2
   15    14    24    28	 9 ;      CG321      CG311      NG2S1       HGP1
   15    14    24    25	 9 ;      CG321      CG311      NG2S1      CG2O1
   11    14    24    28	 9 ;      CG311      CG311      NG2S1       HGP1
   11    14    24    25	 9 ;      CG311      CG311      NG2S1      CG2O1
   57    14    24    28	 9 ;       HGA1      CG311      NG2S1       HGP1
   57    14    24    25	 9 ;       HGA1      CG311      NG2S1      CG2O1
   14    15    16    23	 9 ;      CG311      CG321     CG2R61     CG2R61
   14    15    16    17	 9 ;      CG311      CG321     CG2R61     CG2R61
   58    15    16    23	 9 ;       HGA2      CG321     CG2R61     CG2R61
   58    15    16    17	 9 ;       HGA2      CG321     CG2R61     CG2R61
   59    15    16    23	 9 ;       HGA2      CG321     CG2R61     CG2R61
   59    15    16    17	 9 ;       HGA2      CG321     CG2R61     CG2R61
   15    16    23    21	 9 ;      CG321     CG2R61     CG2R61     CG2R66
   15    16    23    62	 9 ;      CG321     CG2R61     CG2R61      HGR62
   17    16    23    21	 9 ;     CG2R61     CG2R61     CG2R61     CG2R66
   17    16    23    62	 9 ;     CG2R61     CG2R61     CG2R61      HGR62
   23    16    17    18	 9 ;     CG2R61     CG2R61     CG2R61     CG2R66
   23    16    17    60	 9 ;     CG2R61     CG2R61     CG2R61      HGR62
   15    16    17    18	 9 ;      CG321     CG2R61     CG2R61     CG2R66
   15    16    17    60	 9 ;      CG321     CG2R61     CG2R61      HGR62
   16    17    18    20	 9 ;     CG2R61     CG2R61     CG2R66     CG2R61
   16    17    18    19	 9 ;     CG2R61     CG2R61     CG2R66       FGR1
   60    17    18    20	 9 ;      HGR62     CG2R61     CG2R66     CG2R61
   60    17    18    19	 9 ;      HGR62     CG2R61     CG2R66       FGR1
   17    18    20    21	 9 ;     CG2R61     CG2R66     CG2R61     CG2R66
   17    18    20    61	 9 ;     CG2R61     CG2R66     CG2R61      HGR62
   19    18    20    21	 9 ;       FGR1     CG2R66     CG2R61     CG2R66
   19    18    20    61	 9 ;       FGR1     CG2R66     CG2R61      HGR62
   18    20    21    22	 9 ;     CG2R66     CG2R61     CG2R66       FGR1
   18    20    21    23	 9 ;     CG2R66     CG2R61     CG2R66     CG2R61
   61    20    21    22	 9 ;      HGR62     CG2R61     CG2R66       FGR1
   61    20    21    23	 9 ;      HGR62     CG2R61     CG2R66     CG2R61
   22    21    23    16	 9 ;       FGR1     CG2R66     CG2R61     CG2R61
   22    21    23    62	 9 ;       FGR1     CG2R66     CG2R61      HGR62
   20    21    23    16	 9 ;     CG2R61     CG2R66     CG2R61     CG2R61
   20    21    23    62	 9 ;     CG2R61     CG2R66     CG2R61      HGR62
   28    24    25    27	 9 ;       HGP1      NG2S1      CG2O1      CG331
   28    24    25    26	 9 ;       HGP1      NG2S1      CG2O1      OG2D1
   14    24    25    27	 9 ;      CG311      NG2S1      CG2O1      CG331
   14    24    25    26	 9 ;      CG311      NG2S1      CG2O1      OG2D1
   24    25    27    70	 9 ;      NG2S1      CG2O1      CG331       HGA3
   24    25    27    71	 9 ;      NG2S1      CG2O1      CG331       HGA3
   24    25    27    72	 9 ;      NG2S1      CG2O1      CG331       HGA3
   26    25    27    70	 9 ;      OG2D1      CG2O1      CG331       HGA3
   26    25    27    71	 9 ;      OG2D1      CG2O1      CG331       HGA3
   26    25    27    72	 9 ;      OG2D1      CG2O1      CG331       HGA3
   30    29    34    33	 9 ;     CG2R61     CG2R61     CG2R61     CG2R61
   30    29    34    66	 9 ;     CG2R61     CG2R61     CG2R61      HGR61
    4    29    34    33	 9 ;      CG301     CG2R61     CG2R61     CG2R61
    4    29    34    66	 9 ;      CG301     CG2R61     CG2R61      HGR61
   34    29    30    31	 9 ;     CG2R61     CG2R61     CG2R61     CG2R61
   34    29    30    63	 9 ;     CG2R61     CG2R61     CG2R61      HGR61
    4    29    30    31	 9 ;      CG301     CG2R61     CG2R61     CG2R61
    4    29    30    63	 9 ;      CG301     CG2R61     CG2R61      HGR61
   29    30    31    32	 9 ;     CG2R61     CG2R61     CG2R61     CG2R61
   29    30    31    35	 9 ;     CG2R61     CG2R61     CG2R61      CG301
   63    30    31    32	 9 ;      HGR61     CG2R61     CG2R61     CG2R61
   63    30    31    35	 9 ;      HGR61     CG2R61     CG2R61      CG301
   35    31    32    33	 9 ;      CG301     CG2R61     CG2R61     CG2R61
   35    31    32    64	 9 ;      CG301     CG2R61     CG2R61      HGR61
   30    31    32    33	 9 ;     CG2R61     CG2R61     CG2R61     CG2R61
   30    31    32    64	 9 ;     CG2R61     CG2R61     CG2R61      HGR61
   32    31    35    38	 9 ;     CG2R61     CG2R61      CG301      CG331
   32    31    35    36	 9 ;     CG2R61     CG2R61      CG301      CG331
   32    31    35    37	 9 ;     CG2R61     CG2R61      CG301      CG331
   30    31    35    38	 9 ;     CG2R61     CG2R61      CG301      CG331
   30    31    35    36	 9 ;     CG2R61     CG2R61      CG301      CG331
   30    31    35    37	 9 ;     CG2R61     CG2R61      CG301      CG331
   31    32    33    34	 9 ;     CG2R61     CG2R61     CG2R61     CG2R61
   31    32    33    65	 9 ;     CG2R61     CG2R61     CG2R61      HGR61
   64    32    33    34	 9 ;      HGR61     CG2R61     CG2R61     CG2R61
   64    32    33    65	 9 ;      HGR61     CG2R61     CG2R61      HGR61
   32    33    34    29	 9 ;     CG2R61     CG2R61     CG2R61     CG2R61
   32    33    34    66	 9 ;     CG2R61     CG2R61     CG2R61      HGR61
   65    33    34    29	 9 ;      HGR61     CG2R61     CG2R61     CG2R61
   65    33    34    66	 9 ;      HGR61     CG2R61     CG2R61      HGR61
   31    35    38    67	 9 ;     CG2R61      CG301      CG331       HGA3
   31    35    38    68	 9 ;     CG2R61      CG301      CG331       HGA3
   31    35    38    69	 9 ;     CG2R61      CG301      CG331       HGA3
   36    35    38    67	 9 ;      CG331      CG301      CG331       HGA3
   36    35    38    68	 9 ;      CG331      CG301      CG331       HGA3
   36    35    38    69	 9 ;      CG331      CG301      CG331       HGA3
   37    35    38    67	 9 ;      CG331      CG301      CG331       HGA3
   37    35    38    68	 9 ;      CG331      CG301      CG331       HGA3
   37    35    38    69	 9 ;      CG331      CG301      CG331       HGA3
   38    35    36    79	 9 ;      CG331      CG301      CG331       HGA3
   38    35    36    80	 9 ;      CG331      CG301      CG331       HGA3
   38    35    36    81	 9 ;      CG331      CG301      CG331       HGA3
   31    35    36    79	 9 ;     CG2R61      CG301      CG331       HGA3
   31    35    36    80	 9 ;     CG2R61      CG301      CG331       HGA3
   31    35    36    81	 9 ;     CG2R61      CG301      CG331       HGA3
   37    35    36    79	 9 ;      CG331      CG301      CG331       HGA3
   37    35    36    80	 9 ;      CG331      CG301      CG331       HGA3
   37    35    36    81	 9 ;      CG331      CG301      CG331       HGA3
   38    35    37    76	 9 ;      CG331      CG301      CG331       HGA3
   38    35    37    77	 9 ;      CG331      CG301      CG331       HGA3
   38    35    37    78	 9 ;      CG331      CG301      CG331       HGA3
   31    35    37    76	 9 ;     CG2R61      CG301      CG331       HGA3
   31    35    37    77	 9 ;     CG2R61      CG301      CG331       HGA3
   31    35    37    78	 9 ;     CG2R61      CG301      CG331       HGA3
   36    35    37    76	 9 ;      CG331      CG301      CG331       HGA3
   36    35    37    77	 9 ;      CG331      CG301      CG331       HGA3
   36    35    37    78	 9 ;      CG331      CG301      CG331       HGA3
    1    39    41    43	 9 ;      CG311      NG311      SG3O2      OG2P1
    1    39    41    42	 9 ;      CG311      NG311      SG3O2      OG2P1
    1    39    41    44	 9 ;      CG311      NG311      SG3O2      CG331
   40    39    41    43	 9 ;       HGP1      NG311      SG3O2      OG2P1
   40    39    41    42	 9 ;       HGP1      NG311      SG3O2      OG2P1
   40    39    41    44	 9 ;       HGP1      NG311      SG3O2      CG331
   39    41    44    73	 9 ;      NG311      SG3O2      CG331       HGA3
   39    41    44    74	 9 ;      NG311      SG3O2      CG331       HGA3
   39    41    44    75	 9 ;      NG311      SG3O2      CG331       HGA3
   43    41    44    73	 9 ;      OG2P1      SG3O2      CG331       HGA3
   43    41    44    74	 9 ;      OG2P1      SG3O2      CG331       HGA3
   43    41    44    75	 9 ;      OG2P1      SG3O2      CG331       HGA3
   42    41    44    73	 9 ;      OG2P1      SG3O2      CG331       HGA3
   42    41    44    74	 9 ;      OG2P1      SG3O2      CG331       HGA3
   42    41    44    75	 9 ;      OG2P1      SG3O2      CG331       HGA3

[ dihedrals ]
;	ai	  aj	ak	  al funct			  c0			c1			  c2			c3
   25    27    24    26	 2

