Getting the Right Output Means no Artefacts in Calculating Stuff
   60
    1LIG     C1    1  -1.397   0.404  -1.707
    1LIG     N1    2  -1.510   0.331  -1.772
    1LIG     C2    3  -1.548   0.396  -1.885
    1LIG     N2    4  -1.468   0.500  -1.914
    1LIG     C3    5  -1.356   0.493  -1.827
    1LIG     N3    6  -1.245   0.555  -1.831
    1LIG    HN1    7  -1.165   0.515  -1.781
    1LIG     C4    8  -1.225   0.678  -1.902
    1LIG     C5    9  -1.333   0.774  -1.852
    1LIG     C6   10  -1.477   0.744  -1.897
    1LIG     C7   11  -1.498   0.622  -1.989
    1LIG     H1   12  -1.561   0.255  -1.732
    1LIG     C8   13  -1.456   0.492  -1.594
    1LIG     C9   14  -1.480   0.439  -1.465
    1LIG    C10   15  -1.555   0.506  -1.366
    1LIG    C11   16  -1.593   0.638  -1.395
    1LIG    C12   17  -1.557   0.698  -1.515
    1LIG    C13   18  -1.490   0.626  -1.614
    1LIG    C14   19  -1.599   0.438  -1.240
    1LIG    C15   20  -1.714   0.358  -1.235
    1LIG    C16   21  -1.748   0.289  -1.119
    1LIG    C17   22  -1.668   0.303  -1.008
    1LIG     N4   23  -1.558   0.380  -1.006
    1LIG    C18   24  -1.526   0.445  -1.121
    1LIG    HN2   25  -1.501   0.390  -0.922
    1LIG     F1   26  -1.413   0.517  -1.116
    1LIG    C19   27  -1.284   0.311  -1.666
    1LIG    C20   28  -1.166   0.357  -1.609
    1LIG    C21   29  -1.068   0.267  -1.567
    1LIG    C22   30  -1.087   0.129  -1.578
    1LIG    C23   31  -1.200   0.083  -1.640
    1LIG    C24   32  -1.297   0.171  -1.684
    1LIG      O   33  -1.003   0.032  -1.534
    1LIG    C25   34  -0.956  -0.062  -1.628
    1LIG     F2   35  -1.055  -0.126  -1.695
    1LIG     F3   36  -0.880   0.002  -1.719
    1LIG     F4   37  -0.879  -0.154  -1.565
    1LIG     N5   38  -1.656   0.358  -1.952
    1LIG     H2   39  -1.748   0.394  -1.931
    1LIG     H3   40  -1.651   0.283  -2.020
    1LIG     H4   41  -1.606   0.391  -1.975
    1LIG     H5   42  -1.272   0.516  -1.890
    1LIG     H6   43  -1.128   0.718  -1.881
    1LIG     H7   44  -1.232   0.664  -2.007
    1LIG     H8   45  -1.311   0.854  -1.791
    1LIG     H9   46  -1.556   0.803  -1.868
    1LIG    H10   47  -1.599   0.620  -2.023
    1LIG    H11   48  -1.433   0.629  -2.073
    1LIG    H12   49  -1.441   0.346  -1.442
    1LIG    H13   50  -1.648   0.691  -1.326
    1LIG    H14   51  -1.580   0.798  -1.531
    1LIG    H15   52  -1.465   0.673  -1.703
    1LIG    H16   53  -1.775   0.350  -1.319
    1LIG    H17   54  -1.832   0.228  -1.116
    1LIG    H18   55  -1.635   0.205  -0.982
    1LIG    H19   56  -1.732   0.357  -0.941
    1LIG    H20   57  -1.151   0.458  -1.597
    1LIG    H21   58  -0.979   0.303  -1.528
    1LIG    H22   59  -1.213  -0.019  -1.655
    1LIG    H23   60  -1.382   0.135  -1.730
   0.00000   0.00000   0.00000
