; Created by cgenff_charmm2gmx.py

[ moleculetype ]
; Name			   nrexcl
LIG				 3

[ atoms ]
;	 nr		  type	resnr residue  atom   cgnr	   charge		mass  typeB    chargeB		massB
; residue	 1 LIG rtp LIG q	qsum
     1     CG3C50      1    LIG     C1      1      0.952     12.011   ;
     2     NG3C51      1    LIG     N1      2     -0.942     14.007   ;
     3     CG3C51      1    LIG     C2      3      0.434     12.011   ;
     4     NG3C51      1    LIG     N2      4     -1.271     14.007   ;
     5     CG3RC1      1    LIG     C3      5      0.456     12.011   ;
     6      NG311      1    LIG     N3      6     -0.828     14.007   ;
     7     HGPAM1      1    LIG    HN1      7      0.404      1.008   ;
     8      CG321      1    LIG     C4      8      0.045     12.011   ;
     9      CG2D1      1    LIG     C5      9     -0.155     12.011   ;
    10      CG2D1      1    LIG     C6     10     -0.154     12.011   ;
    11      CG321      1    LIG     C7     11      0.360     12.011   ;
    12       HGP1      1    LIG     H1     12      0.206      1.008   ;
    13     CG2R61      1    LIG     C8     13     -0.001     12.011   ;
    14     CG2R61      1    LIG     C9     14     -0.182     12.011   ;
    15     CG2R61      1    LIG    C10     15     -0.137     12.011   ;
    16     CG2R61      1    LIG    C11     16     -0.117     12.011   ;
    17     CG2R61      1    LIG    C12     17     -0.102     12.011   ;
    18     CG2R61      1    LIG    C13     18     -0.181     12.011   ;
    19     CG2DC1      1    LIG    C14     19      0.053     12.011   ;
    20     CG2DC2      1    LIG    C15     20     -0.246     12.011   ;
    21     CG2DC2      1    LIG    C16     21     -0.181     12.011   ;
    22      CG321      1    LIG    C17     22     -0.037     12.011   ;
    23      NG311      1    LIG     N4     23     -0.466     14.007   ;
    24     CG2D1O      1    LIG    C18     24      0.321     12.011   ;
    25     HGPAM1      1    LIG    HN2     25      0.324      1.008   ;
    26       FGA1      1    LIG     F1     26     -0.107     18.998   ;
    27     CG2R61      1    LIG    C19     27     -0.004     12.011   ;
    28     CG2R61      1    LIG    C20     28     -0.178     12.011   ;
    29     CG2R61      1    LIG    C21     29     -0.108     12.011   ;
    30     CG2R61      1    LIG    C22     30      0.217     12.011   ;
    31     CG2R61      1    LIG    C23     31     -0.108     12.011   ;
    32     CG2R61      1    LIG    C24     32     -0.178     12.011   ;
    33      OG301      1    LIG      O     33     -0.303     15.999   ;
    34      CG302      1    LIG    C25     34      0.464     12.011   ;
    35       FGA3      1    LIG     F2     35     -0.126     18.998   ;
    36       FGA3      1    LIG     F3     36     -0.126     18.998   ;
    37       FGA3      1    LIG     F4     37     -0.126     18.998   ;
    38      NG321      1    LIG     N5     38     -0.868     14.007   ;
    39     HGPAM2      1    LIG     H2     39      0.349      1.008   ;
    40     HGPAM2      1    LIG     H3     40      0.349      1.008   ;
    41       HGA1      1    LIG     H4     41      0.137      1.008   ;
    42       HGA1      1    LIG     H5     42      0.090      1.008   ;
    43       HGA2      1    LIG     H6     43      0.090      1.008   ;
    44       HGA2      1    LIG     H7     44      0.090      1.008   ;
    45       HGA4      1    LIG     H8     45      0.150      1.008   ;
    46       HGA4      1    LIG     H9     46      0.150      1.008   ;
    47       HGA2      1    LIG    H10     47      0.090      1.008   ;
    48       HGA2      1    LIG    H11     48      0.090      1.008   ;
    49      HGR61      1    LIG    H12     49      0.116      1.008   ;
    50      HGR61      1    LIG    H13     50      0.116      1.008   ;
    51      HGR61      1    LIG    H14     51      0.116      1.008   ;
    52      HGR61      1    LIG    H15     52      0.116      1.008   ;
    53       HGA4      1    LIG    H16     53      0.153      1.008   ;
    54       HGA4      1    LIG    H17     54      0.150      1.008   ;
    55       HGA2      1    LIG    H18     55      0.090      1.008   ;
    56       HGA2      1    LIG    H19     56      0.090      1.008   ;
    57      HGR61      1    LIG    H20     57      0.116      1.008   ;
    58      HGR61      1    LIG    H21     58      0.116      1.008   ;
    59      HGR61      1    LIG    H22     59      0.116      1.008   ;
    60      HGR61      1    LIG    H23     60      0.116      1.008   ;

[ bonds ]
;	ai	  aj funct			  c0			c1			  c2			c3
    1     5	 1 ;      CG3C50     CG3RC1
    1     2	 1 ;      CG3C50     NG3C51
    1    27	 1 ;      CG3C50     CG2R61
    1    13	 1 ;      CG3C50     CG2R61
    2     3	 1 ;      NG3C51     CG3C51
    2    12	 1 ;      NG3C51       HGP1
    3    38	 1 ;      CG3C51      NG321
    3     4	 1 ;      CG3C51     NG3C51
    3    41	 1 ;      CG3C51       HGA1
    4    11	 1 ;      NG3C51      CG321
    4     5	 1 ;      NG3C51     CG3RC1
    5     6	 1 ;      CG3RC1      NG311
    5    42	 1 ;      CG3RC1       HGA1
    6     8	 1 ;       NG311      CG321
    6     7	 1 ;       NG311     HGPAM1
    8     9	 1 ;       CG321      CG2D1
    8    43	 1 ;       CG321       HGA2
    8    44	 1 ;       CG321       HGA2
    9    10	 1 ;       CG2D1      CG2D1
    9    45	 1 ;       CG2D1       HGA4
   10    11	 1 ;       CG2D1      CG321
   10    46	 1 ;       CG2D1       HGA4
   11    47	 1 ;       CG321       HGA2
   11    48	 1 ;       CG321       HGA2
   13    18	 1 ;      CG2R61     CG2R61
   13    14	 1 ;      CG2R61     CG2R61
   14    15	 1 ;      CG2R61     CG2R61
   14    49	 1 ;      CG2R61      HGR61
   15    16	 1 ;      CG2R61     CG2R61
   15    19	 1 ;      CG2R61     CG2DC1
   16    17	 1 ;      CG2R61     CG2R61
   16    50	 1 ;      CG2R61      HGR61
   17    18	 1 ;      CG2R61     CG2R61
   17    51	 1 ;      CG2R61      HGR61
   18    52	 1 ;      CG2R61      HGR61
   19    20	 1 ;      CG2DC1     CG2DC2
   19    24	 1 ;      CG2DC1     CG2D1O
   20    21	 1 ;      CG2DC2     CG2DC2
   20    53	 1 ;      CG2DC2       HGA4
   21    22	 1 ;      CG2DC2      CG321
   21    54	 1 ;      CG2DC2       HGA4
   22    23	 1 ;       CG321      NG311
   22    55	 1 ;       CG321       HGA2
   22    56	 1 ;       CG321       HGA2
   23    24	 1 ;       NG311     CG2D1O
   23    25	 1 ;       NG311     HGPAM1
   24    26	 1 ;      CG2D1O       FGA1
   27    32	 1 ;      CG2R61     CG2R61
   27    28	 1 ;      CG2R61     CG2R61
   28    29	 1 ;      CG2R61     CG2R61
   28    57	 1 ;      CG2R61      HGR61
   29    30	 1 ;      CG2R61     CG2R61
   29    58	 1 ;      CG2R61      HGR61
   30    31	 1 ;      CG2R61     CG2R61
   30    33	 1 ;      CG2R61      OG301
   31    32	 1 ;      CG2R61     CG2R61
   31    59	 1 ;      CG2R61      HGR61
   32    60	 1 ;      CG2R61      HGR61
   33    34	 1 ;       OG301      CG302
   34    36	 1 ;       CG302       FGA3
   34    35	 1 ;       CG302       FGA3
   34    37	 1 ;       CG302       FGA3
   38    40	 1 ;       NG321     HGPAM2
   38    39	 1 ;       NG321     HGPAM2

[ pairs ]
;	ai	  aj funct			  c0			c1			  c2			c3
    1    38	 1
    1    41	 1
    1    11	 1
    1     8	 1
    1     7	 1
    1    17	 1
    1    52	 1
    1    15	 1
    1    49	 1
    1    31	 1
    1    60	 1
    1    29	 1
    1    57	 1
    2     6	 1
    2    42	 1
    2    32	 1
    2    28	 1
    2    18	 1
    2    14	 1
    2    40	 1
    2    39	 1
    2    11	 1
    3    27	 1
    3    13	 1
    3    10	 1
    3    47	 1
    3    48	 1
    3     6	 1
    3    42	 1
    4    27	 1
    4    13	 1
    4    12	 1
    4    40	 1
    4    39	 1
    4     8	 1
    4     7	 1
    4     9	 1
    4    46	 1
    5    12	 1
    5    32	 1
    5    28	 1
    5    18	 1
    5    14	 1
    5    38	 1
    5    41	 1
    5    10	 1
    5    47	 1
    5    48	 1
    5     9	 1
    5    43	 1
    5    44	 1
    6    27	 1
    6    13	 1
    6    11	 1
    6    10	 1
    6    45	 1
    7    42	 1
    7     9	 1
    7    43	 1
    7    44	 1
    8    42	 1
    8    11	 1
    8    46	 1
    9    47	 1
    9    48	 1
   10    43	 1
   10    44	 1
   11    38	 1
   11    41	 1
   11    42	 1
   11    45	 1
   12    27	 1
   12    13	 1
   12    38	 1
   12    41	 1
   13    42	 1
   13    32	 1
   13    28	 1
   13    16	 1
   13    19	 1
   13    51	 1
   14    27	 1
   14    17	 1
   14    52	 1
   14    50	 1
   14    20	 1
   14    24	 1
   15    18	 1
   15    51	 1
   15    21	 1
   15    53	 1
   15    26	 1
   15    23	 1
   16    49	 1
   16    20	 1
   16    24	 1
   16    52	 1
   17    19	 1
   18    27	 1
   18    49	 1
   18    50	 1
   19    49	 1
   19    50	 1
   19    22	 1
   19    54	 1
   19    25	 1
   20    26	 1
   20    23	 1
   20    55	 1
   20    56	 1
   21    24	 1
   21    25	 1
   22    53	 1
   22    26	 1
   23    54	 1
   24    53	 1
   24    55	 1
   24    56	 1
   25    55	 1
   25    56	 1
   25    26	 1
   27    42	 1
   27    30	 1
   27    58	 1
   27    59	 1
   28    31	 1
   28    60	 1
   28    33	 1
   29    32	 1
   29    59	 1
   29    34	 1
   30    57	 1
   30    60	 1
   30    36	 1
   30    35	 1
   30    37	 1
   31    58	 1
   31    34	 1
   32    57	 1
   32    33	 1
   33    58	 1
   33    59	 1
   39    41	 1
   40    41	 1
   43    45	 1
   44    45	 1
   45    46	 1
   46    47	 1
   46    48	 1
   50    51	 1
   51    52	 1
   53    54	 1
   54    55	 1
   54    56	 1
   57    58	 1
   59    60	 1

[ angles ]
;	ai	  aj	ak funct			c0			  c1			c2			  c3
    5     1     2	5 ;     CG3RC1     CG3C50     NG3C51
    5     1    27	5 ;     CG3RC1     CG3C50     CG2R61
    5     1    13	5 ;     CG3RC1     CG3C50     CG2R61
    2     1    27	5 ;     NG3C51     CG3C50     CG2R61
    2     1    13	5 ;     NG3C51     CG3C50     CG2R61
   27     1    13	5 ;     CG2R61     CG3C50     CG2R61
    3     2    12	5 ;     CG3C51     NG3C51       HGP1
    3     2     1	5 ;     CG3C51     NG3C51     CG3C50
   12     2     1	5 ;       HGP1     NG3C51     CG3C50
   38     3     4	5 ;      NG321     CG3C51     NG3C51
   38     3     2	5 ;      NG321     CG3C51     NG3C51
   38     3    41	5 ;      NG321     CG3C51       HGA1
    4     3     2	5 ;     NG3C51     CG3C51     NG3C51
    4     3    41	5 ;     NG3C51     CG3C51       HGA1
    2     3    41	5 ;     NG3C51     CG3C51       HGA1
   11     4     3	5 ;      CG321     NG3C51     CG3C51
   11     4     5	5 ;      CG321     NG3C51     CG3RC1
    3     4     5	5 ;     CG3C51     NG3C51     CG3RC1
    4     5     6	5 ;     NG3C51     CG3RC1      NG311
    4     5     1	5 ;     NG3C51     CG3RC1     CG3C50
    4     5    42	5 ;     NG3C51     CG3RC1       HGA1
    6     5     1	5 ;      NG311     CG3RC1     CG3C50
    6     5    42	5 ;      NG311     CG3RC1       HGA1
    1     5    42	5 ;     CG3C50     CG3RC1       HGA1
    8     6     5	5 ;      CG321      NG311     CG3RC1
    8     6     7	5 ;      CG321      NG311     HGPAM1
    5     6     7	5 ;     CG3RC1      NG311     HGPAM1
    9     8     6	5 ;      CG2D1      CG321      NG311
    9     8    43	5 ;      CG2D1      CG321       HGA2
    9     8    44	5 ;      CG2D1      CG321       HGA2
    6     8    43	5 ;      NG311      CG321       HGA2
    6     8    44	5 ;      NG311      CG321       HGA2
   43     8    44	5 ;       HGA2      CG321       HGA2
    8     9    10	5 ;      CG321      CG2D1      CG2D1
    8     9    45	5 ;      CG321      CG2D1       HGA4
   10     9    45	5 ;      CG2D1      CG2D1       HGA4
   11    10     9	5 ;      CG321      CG2D1      CG2D1
   11    10    46	5 ;      CG321      CG2D1       HGA4
    9    10    46	5 ;      CG2D1      CG2D1       HGA4
    4    11    10	5 ;     NG3C51      CG321      CG2D1
    4    11    47	5 ;     NG3C51      CG321       HGA2
    4    11    48	5 ;     NG3C51      CG321       HGA2
   10    11    47	5 ;      CG2D1      CG321       HGA2
   10    11    48	5 ;      CG2D1      CG321       HGA2
   47    11    48	5 ;       HGA2      CG321       HGA2
    1    13    18	5 ;     CG3C50     CG2R61     CG2R61
    1    13    14	5 ;     CG3C50     CG2R61     CG2R61
   18    13    14	5 ;     CG2R61     CG2R61     CG2R61
   13    14    15	5 ;     CG2R61     CG2R61     CG2R61
   13    14    49	5 ;     CG2R61     CG2R61      HGR61
   15    14    49	5 ;     CG2R61     CG2R61      HGR61
   14    15    16	5 ;     CG2R61     CG2R61     CG2R61
   14    15    19	5 ;     CG2R61     CG2R61     CG2DC1
   16    15    19	5 ;     CG2R61     CG2R61     CG2DC1
   17    16    15	5 ;     CG2R61     CG2R61     CG2R61
   17    16    50	5 ;     CG2R61     CG2R61      HGR61
   15    16    50	5 ;     CG2R61     CG2R61      HGR61
   18    17    16	5 ;     CG2R61     CG2R61     CG2R61
   18    17    51	5 ;     CG2R61     CG2R61      HGR61
   16    17    51	5 ;     CG2R61     CG2R61      HGR61
   13    18    17	5 ;     CG2R61     CG2R61     CG2R61
   13    18    52	5 ;     CG2R61     CG2R61      HGR61
   17    18    52	5 ;     CG2R61     CG2R61      HGR61
   15    19    20	5 ;     CG2R61     CG2DC1     CG2DC2
   15    19    24	5 ;     CG2R61     CG2DC1     CG2D1O
   20    19    24	5 ;     CG2DC2     CG2DC1     CG2D1O
   19    20    21	5 ;     CG2DC1     CG2DC2     CG2DC2
   19    20    53	5 ;     CG2DC1     CG2DC2       HGA4
   21    20    53	5 ;     CG2DC2     CG2DC2       HGA4
   20    21    22	5 ;     CG2DC2     CG2DC2      CG321
   20    21    54	5 ;     CG2DC2     CG2DC2       HGA4
   22    21    54	5 ;      CG321     CG2DC2       HGA4
   21    22    23	5 ;     CG2DC2      CG321      NG311
   21    22    55	5 ;     CG2DC2      CG321       HGA2
   21    22    56	5 ;     CG2DC2      CG321       HGA2
   23    22    55	5 ;      NG311      CG321       HGA2
   23    22    56	5 ;      NG311      CG321       HGA2
   55    22    56	5 ;       HGA2      CG321       HGA2
   24    23    22	5 ;     CG2D1O      NG311      CG321
   24    23    25	5 ;     CG2D1O      NG311     HGPAM1
   22    23    25	5 ;      CG321      NG311     HGPAM1
   19    24    26	5 ;     CG2DC1     CG2D1O       FGA1
   19    24    23	5 ;     CG2DC1     CG2D1O      NG311
   26    24    23	5 ;       FGA1     CG2D1O      NG311
    1    27    32	5 ;     CG3C50     CG2R61     CG2R61
    1    27    28	5 ;     CG3C50     CG2R61     CG2R61
   32    27    28	5 ;     CG2R61     CG2R61     CG2R61
   27    28    29	5 ;     CG2R61     CG2R61     CG2R61
   27    28    57	5 ;     CG2R61     CG2R61      HGR61
   29    28    57	5 ;     CG2R61     CG2R61      HGR61
   28    29    30	5 ;     CG2R61     CG2R61     CG2R61
   28    29    58	5 ;     CG2R61     CG2R61      HGR61
   30    29    58	5 ;     CG2R61     CG2R61      HGR61
   31    30    29	5 ;     CG2R61     CG2R61     CG2R61
   31    30    33	5 ;     CG2R61     CG2R61      OG301
   29    30    33	5 ;     CG2R61     CG2R61      OG301
   32    31    30	5 ;     CG2R61     CG2R61     CG2R61
   32    31    59	5 ;     CG2R61     CG2R61      HGR61
   30    31    59	5 ;     CG2R61     CG2R61      HGR61
   27    32    31	5 ;     CG2R61     CG2R61     CG2R61
   27    32    60	5 ;     CG2R61     CG2R61      HGR61
   31    32    60	5 ;     CG2R61     CG2R61      HGR61
   34    33    30	5 ;      CG302      OG301     CG2R61
   36    34    35	5 ;       FGA3      CG302       FGA3
   36    34    37	5 ;       FGA3      CG302       FGA3
   36    34    33	5 ;       FGA3      CG302      OG301
   35    34    37	5 ;       FGA3      CG302       FGA3
   35    34    33	5 ;       FGA3      CG302      OG301
   37    34    33	5 ;       FGA3      CG302      OG301
   40    38    39	5 ;     HGPAM2      NG321     HGPAM2
   40    38     3	5 ;     HGPAM2      NG321     CG3C51
   39    38     3	5 ;     HGPAM2      NG321     CG3C51

[ dihedrals ]
;	ai	  aj	ak	  al funct			  c0			c1			  c2			c3			  c4			c5
    2     1     5     4	 9 ;     NG3C51     CG3C50     CG3RC1     NG3C51
    2     1     5     6	 9 ;     NG3C51     CG3C50     CG3RC1      NG311
    2     1     5    42	 9 ;     NG3C51     CG3C50     CG3RC1       HGA1
   27     1     5     4	 9 ;     CG2R61     CG3C50     CG3RC1     NG3C51
   27     1     5     6	 9 ;     CG2R61     CG3C50     CG3RC1      NG311
   27     1     5    42	 9 ;     CG2R61     CG3C50     CG3RC1       HGA1
   13     1     5     4	 9 ;     CG2R61     CG3C50     CG3RC1     NG3C51
   13     1     5     6	 9 ;     CG2R61     CG3C50     CG3RC1      NG311
   13     1     5    42	 9 ;     CG2R61     CG3C50     CG3RC1       HGA1
    5     1     2     3	 9 ;     CG3RC1     CG3C50     NG3C51     CG3C51
    5     1     2    12	 9 ;     CG3RC1     CG3C50     NG3C51       HGP1
   27     1     2     3	 9 ;     CG2R61     CG3C50     NG3C51     CG3C51
   27     1     2    12	 9 ;     CG2R61     CG3C50     NG3C51       HGP1
   13     1     2     3	 9 ;     CG2R61     CG3C50     NG3C51     CG3C51
   13     1     2    12	 9 ;     CG2R61     CG3C50     NG3C51       HGP1
    5     1    27    32	 9 ;     CG3RC1     CG3C50     CG2R61     CG2R61
    5     1    27    28	 9 ;     CG3RC1     CG3C50     CG2R61     CG2R61
    2     1    27    32	 9 ;     NG3C51     CG3C50     CG2R61     CG2R61
    2     1    27    28	 9 ;     NG3C51     CG3C50     CG2R61     CG2R61
   13     1    27    32	 9 ;     CG2R61     CG3C50     CG2R61     CG2R61
   13     1    27    28	 9 ;     CG2R61     CG3C50     CG2R61     CG2R61
    5     1    13    18	 9 ;     CG3RC1     CG3C50     CG2R61     CG2R61
    5     1    13    14	 9 ;     CG3RC1     CG3C50     CG2R61     CG2R61
    2     1    13    18	 9 ;     NG3C51     CG3C50     CG2R61     CG2R61
    2     1    13    14	 9 ;     NG3C51     CG3C50     CG2R61     CG2R61
   27     1    13    18	 9 ;     CG2R61     CG3C50     CG2R61     CG2R61
   27     1    13    14	 9 ;     CG2R61     CG3C50     CG2R61     CG2R61
   12     2     3    38	 9 ;       HGP1     NG3C51     CG3C51      NG321
   12     2     3     4	 9 ;       HGP1     NG3C51     CG3C51     NG3C51
   12     2     3    41	 9 ;       HGP1     NG3C51     CG3C51       HGA1
    1     2     3    38	 9 ;     CG3C50     NG3C51     CG3C51      NG321
    1     2     3     4	 9 ;     CG3C50     NG3C51     CG3C51     NG3C51
    1     2     3    41	 9 ;     CG3C50     NG3C51     CG3C51       HGA1
    4     3    38    40	 9 ;     NG3C51     CG3C51      NG321     HGPAM2
    4     3    38    39	 9 ;     NG3C51     CG3C51      NG321     HGPAM2
    2     3    38    40	 9 ;     NG3C51     CG3C51      NG321     HGPAM2
    2     3    38    39	 9 ;     NG3C51     CG3C51      NG321     HGPAM2
   41     3    38    40	 9 ;       HGA1     CG3C51      NG321     HGPAM2
   41     3    38    39	 9 ;       HGA1     CG3C51      NG321     HGPAM2
   38     3     4    11	 9 ;      NG321     CG3C51     NG3C51      CG321
   38     3     4     5	 9 ;      NG321     CG3C51     NG3C51     CG3RC1
    2     3     4    11	 9 ;     NG3C51     CG3C51     NG3C51      CG321
    2     3     4     5	 9 ;     NG3C51     CG3C51     NG3C51     CG3RC1
   41     3     4    11	 9 ;       HGA1     CG3C51     NG3C51      CG321
   41     3     4     5	 9 ;       HGA1     CG3C51     NG3C51     CG3RC1
    3     4    11    10	 9 ;     CG3C51     NG3C51      CG321      CG2D1
    3     4    11    47	 9 ;     CG3C51     NG3C51      CG321       HGA2
    3     4    11    48	 9 ;     CG3C51     NG3C51      CG321       HGA2
    5     4    11    10	 9 ;     CG3RC1     NG3C51      CG321      CG2D1
    5     4    11    47	 9 ;     CG3RC1     NG3C51      CG321       HGA2
    5     4    11    48	 9 ;     CG3RC1     NG3C51      CG321       HGA2
   11     4     5     6	 9 ;      CG321     NG3C51     CG3RC1      NG311
   11     4     5     1	 9 ;      CG321     NG3C51     CG3RC1     CG3C50
   11     4     5    42	 9 ;      CG321     NG3C51     CG3RC1       HGA1
    3     4     5     6	 9 ;     CG3C51     NG3C51     CG3RC1      NG311
    3     4     5     1	 9 ;     CG3C51     NG3C51     CG3RC1     CG3C50
    3     4     5    42	 9 ;     CG3C51     NG3C51     CG3RC1       HGA1
    4     5     6     8	 9 ;     NG3C51     CG3RC1      NG311      CG321
    4     5     6     7	 9 ;     NG3C51     CG3RC1      NG311     HGPAM1
    1     5     6     8	 9 ;     CG3C50     CG3RC1      NG311      CG321
    1     5     6     7	 9 ;     CG3C50     CG3RC1      NG311     HGPAM1
   42     5     6     8	 9 ;       HGA1     CG3RC1      NG311      CG321
   42     5     6     7	 9 ;       HGA1     CG3RC1      NG311     HGPAM1
    5     6     8     9	 9 ;     CG3RC1      NG311      CG321      CG2D1
    5     6     8    43	 9 ;     CG3RC1      NG311      CG321       HGA2
    5     6     8    44	 9 ;     CG3RC1      NG311      CG321       HGA2
    7     6     8     9	 9 ;     HGPAM1      NG311      CG321      CG2D1
    7     6     8    43	 9 ;     HGPAM1      NG311      CG321       HGA2
    7     6     8    44	 9 ;     HGPAM1      NG311      CG321       HGA2
    6     8     9    10	 9 ;      NG311      CG321      CG2D1      CG2D1
    6     8     9    45	 9 ;      NG311      CG321      CG2D1       HGA4
   43     8     9    10	 9 ;       HGA2      CG321      CG2D1      CG2D1
   43     8     9    45	 9 ;       HGA2      CG321      CG2D1       HGA4
   44     8     9    10	 9 ;       HGA2      CG321      CG2D1      CG2D1
   44     8     9    45	 9 ;       HGA2      CG321      CG2D1       HGA4
    8     9    10    11	 9 ;      CG321      CG2D1      CG2D1      CG321
    8     9    10    46	 9 ;      CG321      CG2D1      CG2D1       HGA4
   45     9    10    11	 9 ;       HGA4      CG2D1      CG2D1      CG321
   45     9    10    46	 9 ;       HGA4      CG2D1      CG2D1       HGA4
    9    10    11     4	 9 ;      CG2D1      CG2D1      CG321     NG3C51
    9    10    11    47	 9 ;      CG2D1      CG2D1      CG321       HGA2
    9    10    11    48	 9 ;      CG2D1      CG2D1      CG321       HGA2
   46    10    11     4	 9 ;       HGA4      CG2D1      CG321     NG3C51
   46    10    11    47	 9 ;       HGA4      CG2D1      CG321       HGA2
   46    10    11    48	 9 ;       HGA4      CG2D1      CG321       HGA2
    1    13    18    17	 9 ;     CG3C50     CG2R61     CG2R61     CG2R61
    1    13    18    52	 9 ;     CG3C50     CG2R61     CG2R61      HGR61
   14    13    18    17	 9 ;     CG2R61     CG2R61     CG2R61     CG2R61
   14    13    18    52	 9 ;     CG2R61     CG2R61     CG2R61      HGR61
    1    13    14    15	 9 ;     CG3C50     CG2R61     CG2R61     CG2R61
    1    13    14    49	 9 ;     CG3C50     CG2R61     CG2R61      HGR61
   18    13    14    15	 9 ;     CG2R61     CG2R61     CG2R61     CG2R61
   18    13    14    49	 9 ;     CG2R61     CG2R61     CG2R61      HGR61
   13    14    15    16	 9 ;     CG2R61     CG2R61     CG2R61     CG2R61
   13    14    15    19	 9 ;     CG2R61     CG2R61     CG2R61     CG2DC1
   49    14    15    16	 9 ;      HGR61     CG2R61     CG2R61     CG2R61
   49    14    15    19	 9 ;      HGR61     CG2R61     CG2R61     CG2DC1
   14    15    16    17	 9 ;     CG2R61     CG2R61     CG2R61     CG2R61
   14    15    16    50	 9 ;     CG2R61     CG2R61     CG2R61      HGR61
   19    15    16    17	 9 ;     CG2DC1     CG2R61     CG2R61     CG2R61
   19    15    16    50	 9 ;     CG2DC1     CG2R61     CG2R61      HGR61
   14    15    19    20	 9 ;     CG2R61     CG2R61     CG2DC1     CG2DC2
   14    15    19    24	 9 ;     CG2R61     CG2R61     CG2DC1     CG2D1O
   16    15    19    20	 9 ;     CG2R61     CG2R61     CG2DC1     CG2DC2
   16    15    19    24	 9 ;     CG2R61     CG2R61     CG2DC1     CG2D1O
   15    16    17    18	 9 ;     CG2R61     CG2R61     CG2R61     CG2R61
   15    16    17    51	 9 ;     CG2R61     CG2R61     CG2R61      HGR61
   50    16    17    18	 9 ;      HGR61     CG2R61     CG2R61     CG2R61
   50    16    17    51	 9 ;      HGR61     CG2R61     CG2R61      HGR61
   16    17    18    13	 9 ;     CG2R61     CG2R61     CG2R61     CG2R61
   16    17    18    52	 9 ;     CG2R61     CG2R61     CG2R61      HGR61
   51    17    18    13	 9 ;      HGR61     CG2R61     CG2R61     CG2R61
   51    17    18    52	 9 ;      HGR61     CG2R61     CG2R61      HGR61
   15    19    20    21	 9 ;     CG2R61     CG2DC1     CG2DC2     CG2DC2
   15    19    20    53	 9 ;     CG2R61     CG2DC1     CG2DC2       HGA4
   24    19    20    21	 9 ;     CG2D1O     CG2DC1     CG2DC2     CG2DC2
   24    19    20    53	 9 ;     CG2D1O     CG2DC1     CG2DC2       HGA4
   15    19    24    26	 9 ;     CG2R61     CG2DC1     CG2D1O       FGA1
   15    19    24    23	 9 ;     CG2R61     CG2DC1     CG2D1O      NG311
   20    19    24    26	 9 ;     CG2DC2     CG2DC1     CG2D1O       FGA1
   20    19    24    23	 9 ;     CG2DC2     CG2DC1     CG2D1O      NG311
   19    20    21    22	 9 ;     CG2DC1     CG2DC2     CG2DC2      CG321
   19    20    21    54	 9 ;     CG2DC1     CG2DC2     CG2DC2       HGA4
   53    20    21    22	 9 ;       HGA4     CG2DC2     CG2DC2      CG321
   53    20    21    54	 9 ;       HGA4     CG2DC2     CG2DC2       HGA4
   20    21    22    23	 9 ;     CG2DC2     CG2DC2      CG321      NG311
   20    21    22    55	 9 ;     CG2DC2     CG2DC2      CG321       HGA2
   20    21    22    56	 9 ;     CG2DC2     CG2DC2      CG321       HGA2
   54    21    22    23	 9 ;       HGA4     CG2DC2      CG321      NG311
   54    21    22    55	 9 ;       HGA4     CG2DC2      CG321       HGA2
   54    21    22    56	 9 ;       HGA4     CG2DC2      CG321       HGA2
   21    22    23    24	 9 ;     CG2DC2      CG321      NG311     CG2D1O
   21    22    23    25	 9 ;     CG2DC2      CG321      NG311     HGPAM1
   55    22    23    24	 9 ;       HGA2      CG321      NG311     CG2D1O
   55    22    23    25	 9 ;       HGA2      CG321      NG311     HGPAM1
   56    22    23    24	 9 ;       HGA2      CG321      NG311     CG2D1O
   56    22    23    25	 9 ;       HGA2      CG321      NG311     HGPAM1
   22    23    24    19	 9 ;      CG321      NG311     CG2D1O     CG2DC1
   22    23    24    26	 9 ;      CG321      NG311     CG2D1O       FGA1
   25    23    24    19	 9 ;     HGPAM1      NG311     CG2D1O     CG2DC1
   25    23    24    26	 9 ;     HGPAM1      NG311     CG2D1O       FGA1
    1    27    32    31	 9 ;     CG3C50     CG2R61     CG2R61     CG2R61
    1    27    32    60	 9 ;     CG3C50     CG2R61     CG2R61      HGR61
   28    27    32    31	 9 ;     CG2R61     CG2R61     CG2R61     CG2R61
   28    27    32    60	 9 ;     CG2R61     CG2R61     CG2R61      HGR61
    1    27    28    29	 9 ;     CG3C50     CG2R61     CG2R61     CG2R61
    1    27    28    57	 9 ;     CG3C50     CG2R61     CG2R61      HGR61
   32    27    28    29	 9 ;     CG2R61     CG2R61     CG2R61     CG2R61
   32    27    28    57	 9 ;     CG2R61     CG2R61     CG2R61      HGR61
   27    28    29    30	 9 ;     CG2R61     CG2R61     CG2R61     CG2R61
   27    28    29    58	 9 ;     CG2R61     CG2R61     CG2R61      HGR61
   57    28    29    30	 9 ;      HGR61     CG2R61     CG2R61     CG2R61
   57    28    29    58	 9 ;      HGR61     CG2R61     CG2R61      HGR61
   28    29    30    31	 9 ;     CG2R61     CG2R61     CG2R61     CG2R61
   28    29    30    33	 9 ;     CG2R61     CG2R61     CG2R61      OG301
   58    29    30    31	 9 ;      HGR61     CG2R61     CG2R61     CG2R61
   58    29    30    33	 9 ;      HGR61     CG2R61     CG2R61      OG301
   29    30    31    32	 9 ;     CG2R61     CG2R61     CG2R61     CG2R61
   29    30    31    59	 9 ;     CG2R61     CG2R61     CG2R61      HGR61
   33    30    31    32	 9 ;      OG301     CG2R61     CG2R61     CG2R61
   33    30    31    59	 9 ;      OG301     CG2R61     CG2R61      HGR61
   31    30    33    34	 9 ;     CG2R61     CG2R61      OG301      CG302
   29    30    33    34	 9 ;     CG2R61     CG2R61      OG301      CG302
   30    31    32    27	 9 ;     CG2R61     CG2R61     CG2R61     CG2R61
   30    31    32    60	 9 ;     CG2R61     CG2R61     CG2R61      HGR61
   59    31    32    27	 9 ;      HGR61     CG2R61     CG2R61     CG2R61
   59    31    32    60	 9 ;      HGR61     CG2R61     CG2R61      HGR61
   30    33    34    36	 9 ;     CG2R61      OG301      CG302       FGA3
   30    33    34    35	 9 ;     CG2R61      OG301      CG302       FGA3
   30    33    34    37	 9 ;     CG2R61      OG301      CG302       FGA3

[ dihedrals ]
;	ai	  aj	ak	  al funct			  c0			c1			  c2			c3
   24    19    23    26	 2

