; Created by cgenff_charmm2gmx.py

[ moleculetype ]
; Name			   nrexcl
LIG				 3

[ atoms ]
;	 nr		  type	resnr residue  atom   cgnr	   charge		mass  typeB    chargeB		massB
; residue	 1 LIG rtp LIG q	qsum
     1     CG3C50      1    LIG     C1      1      1.165     12.011   ;
     2     NG3C51      1    LIG     N1      2     -0.899     14.007   ;
     3       HGP1      1    LIG    HN1      3      0.262      1.008   ;
     4     CG3C51      1    LIG     C2      4      0.317     12.011   ;
     5     NG2R53      1    LIG     N2      5     -0.396     14.007   ;
     6      CG331      1    LIG     C3      6     -0.126     12.011   ;
     7     CG2R53      1    LIG     C4      7      0.158     12.011   ;
     8      OG2D1      1    LIG      O      8     -0.373     15.999   ;
     9     CG2R57      1    LIG     C5      9     -0.261     12.011   ;
    10     CG2R51      1    LIG     C6     10     -0.227     12.011   ;
    11     SG2R50      1    LIG      S     11      0.018     32.060   ;
    12     CG2R51      1    LIG     C7     12     -0.390     12.011   ;
    13     CG2R51      1    LIG     C8     13     -0.099     12.011   ;
    14     CG2R61      1    LIG     C9     14      0.214     12.011   ;
    15     CG2R61      1    LIG    C10     15     -0.216     12.011   ;
    16     CG2R61      1    LIG    C11     16      0.035     12.011   ;
    17     CG2R66      1    LIG    C12     17      0.006     12.011   ;
    18       FGR1      1    LIG      F     18     -0.169     18.998   ;
    19     CG2R61      1    LIG    C13     19     -0.075     12.011   ;
    20     CG2R61      1    LIG    C14     20     -0.218     12.011   ;
    21     CG2DC1      1    LIG    C15     21      0.114     12.011   ;
    22     CG2DC2      1    LIG    C16     22     -0.254     12.011   ;
    23     CG2DC2      1    LIG    C17     23     -0.181     12.011   ;
    24      CG321      1    LIG    C18     24     -0.038     12.011   ;
    25      NG311      1    LIG     N3     25     -0.536     14.007   ;
    26     CG2D1O      1    LIG    C19     26     -0.044     12.011   ;
    27     HGPAM1      1    LIG    HN2     27      0.389      1.008   ;
    28      NG321      1    LIG     N4     28     -0.877     14.007   ;
    29     HGPAM2      1    LIG     H1     29      0.349      1.008   ;
    30     HGPAM2      1    LIG     H2     30      0.349      1.008   ;
    31       HGA1      1    LIG     H3     31      0.110      1.008   ;
    32       HGA3      1    LIG     H4     32      0.090      1.008   ;
    33       HGA3      1    LIG     H5     33      0.090      1.008   ;
    34       HGA3      1    LIG     H6     34      0.090      1.008   ;
    35      HGR52      1    LIG     H7     35      0.191      1.008   ;
    36      HGR52      1    LIG     H8     36      0.194      1.008   ;
    37      HGR51      1    LIG     H9     37      0.192      1.008   ;
    38      HGR61      1    LIG    H10     38      0.116      1.008   ;
    39      HGR62      1    LIG    H11     39      0.179      1.008   ;
    40      HGR61      1    LIG    H12     40      0.116      1.008   ;
    41       HGA4      1    LIG    H13     41      0.153      1.008   ;
    42       HGA4      1    LIG    H14     42      0.150      1.008   ;
    43       HGA2      1    LIG    H15     43      0.090      1.008   ;
    44       HGA2      1    LIG    H16     44      0.090      1.008   ;
    45       HGA4      1    LIG    H17     45      0.152      1.008   ;

[ bonds ]
;	ai	  aj funct			  c0			c1			  c2			c3
    1     2	 1 ;      CG3C50     NG3C51
    1     7	 1 ;      CG3C50     CG2R53
    1    14	 1 ;      CG3C50     CG2R61
    1     9	 1 ;      CG3C50     CG2R57
    2     4	 1 ;      NG3C51     CG3C51
    2     3	 1 ;      NG3C51       HGP1
    4    28	 1 ;      CG3C51      NG321
    4     5	 1 ;      CG3C51     NG2R53
    4    31	 1 ;      CG3C51       HGA1
    5     6	 1 ;      NG2R53      CG331
    5     7	 1 ;      NG2R53     CG2R53
    6    32	 1 ;       CG331       HGA3
    6    33	 1 ;       CG331       HGA3
    6    34	 1 ;       CG331       HGA3
    7     8	 1 ;      CG2R53      OG2D1
    9    13	 1 ;      CG2R57     CG2R51
    9    10	 1 ;      CG2R57     CG2R51
   10    11	 1 ;      CG2R51     SG2R50
   10    35	 1 ;      CG2R51      HGR52
   11    12	 1 ;      SG2R50     CG2R51
   12    13	 1 ;      CG2R51     CG2R51
   12    36	 1 ;      CG2R51      HGR52
   13    37	 1 ;      CG2R51      HGR51
   14    20	 1 ;      CG2R61     CG2R61
   14    15	 1 ;      CG2R61     CG2R61
   15    16	 1 ;      CG2R61     CG2R61
   15    38	 1 ;      CG2R61      HGR61
   16    17	 1 ;      CG2R61     CG2R66
   16    21	 1 ;      CG2R61     CG2DC1
   17    18	 1 ;      CG2R66       FGR1
   17    19	 1 ;      CG2R66     CG2R61
   19    20	 1 ;      CG2R61     CG2R61
   19    39	 1 ;      CG2R61      HGR62
   20    40	 1 ;      CG2R61      HGR61
   21    22	 1 ;      CG2DC1     CG2DC2
   21    26	 1 ;      CG2DC1     CG2D1O
   22    23	 1 ;      CG2DC2     CG2DC2
   22    41	 1 ;      CG2DC2       HGA4
   23    24	 1 ;      CG2DC2      CG321
   23    42	 1 ;      CG2DC2       HGA4
   24    25	 1 ;       CG321      NG311
   24    43	 1 ;       CG321       HGA2
   24    44	 1 ;       CG321       HGA2
   25    26	 1 ;       NG311     CG2D1O
   25    27	 1 ;       NG311     HGPAM1
   26    45	 1 ;      CG2D1O       HGA4
   28    29	 1 ;       NG321     HGPAM2
   28    30	 1 ;       NG321     HGPAM2

[ pairs ]
;	ai	  aj funct			  c0			c1			  c2			c3
    1    28	 1
    1    31	 1
    1     6	 1
    1    12	 1
    1    37	 1
    1    11	 1
    1    35	 1
    1    19	 1
    1    40	 1
    1    16	 1
    1    38	 1
    2     8	 1
    2    20	 1
    2    15	 1
    2    13	 1
    2    10	 1
    2    29	 1
    2    30	 1
    2     6	 1
    3     7	 1
    3    14	 1
    3     9	 1
    3    28	 1
    3     5	 1
    3    31	 1
    4    14	 1
    4     9	 1
    4    32	 1
    4    33	 1
    4    34	 1
    4     8	 1
    5    14	 1
    5     9	 1
    5    29	 1
    5    30	 1
    6    28	 1
    6    31	 1
    6     8	 1
    7    20	 1
    7    15	 1
    7    13	 1
    7    10	 1
    7    28	 1
    7    31	 1
    7    32	 1
    7    33	 1
    7    34	 1
    8    14	 1
    8     9	 1
    9    20	 1
    9    15	 1
    9    36	 1
   10    14	 1
   10    37	 1
   10    36	 1
   11    37	 1
   12    35	 1
   13    14	 1
   13    35	 1
   14    17	 1
   14    21	 1
   14    39	 1
   15    19	 1
   15    40	 1
   15    18	 1
   15    22	 1
   15    26	 1
   16    20	 1
   16    39	 1
   16    23	 1
   16    41	 1
   16    25	 1
   16    45	 1
   17    38	 1
   17    22	 1
   17    26	 1
   17    40	 1
   18    21	 1
   18    20	 1
   18    39	 1
   19    21	 1
   20    38	 1
   21    38	 1
   21    24	 1
   21    42	 1
   21    27	 1
   22    25	 1
   22    45	 1
   22    43	 1
   22    44	 1
   23    26	 1
   23    27	 1
   24    41	 1
   24    45	 1
   25    42	 1
   26    41	 1
   26    43	 1
   26    44	 1
   27    43	 1
   27    44	 1
   27    45	 1
   29    31	 1
   30    31	 1
   36    37	 1
   39    40	 1
   41    42	 1
   42    43	 1
   42    44	 1

[ angles ]
;	ai	  aj	ak funct			c0			  c1			c2			  c3
    2     1     7	5 ;     NG3C51     CG3C50     CG2R53
    2     1    14	5 ;     NG3C51     CG3C50     CG2R61
    2     1     9	5 ;     NG3C51     CG3C50     CG2R57
    7     1    14	5 ;     CG2R53     CG3C50     CG2R61
    7     1     9	5 ;     CG2R53     CG3C50     CG2R57
   14     1     9	5 ;     CG2R61     CG3C50     CG2R57
    4     2     3	5 ;     CG3C51     NG3C51       HGP1
    4     2     1	5 ;     CG3C51     NG3C51     CG3C50
    3     2     1	5 ;       HGP1     NG3C51     CG3C50
   28     4     5	5 ;      NG321     CG3C51     NG2R53
   28     4     2	5 ;      NG321     CG3C51     NG3C51
   28     4    31	5 ;      NG321     CG3C51       HGA1
    5     4     2	5 ;     NG2R53     CG3C51     NG3C51
    5     4    31	5 ;     NG2R53     CG3C51       HGA1
    2     4    31	5 ;     NG3C51     CG3C51       HGA1
    6     5     4	5 ;      CG331     NG2R53     CG3C51
    6     5     7	5 ;      CG331     NG2R53     CG2R53
    4     5     7	5 ;     CG3C51     NG2R53     CG2R53
    5     6    32	5 ;     NG2R53      CG331       HGA3
    5     6    33	5 ;     NG2R53      CG331       HGA3
    5     6    34	5 ;     NG2R53      CG331       HGA3
   32     6    33	5 ;       HGA3      CG331       HGA3
   32     6    34	5 ;       HGA3      CG331       HGA3
   33     6    34	5 ;       HGA3      CG331       HGA3
    5     7     8	5 ;     NG2R53     CG2R53      OG2D1
    5     7     1	5 ;     NG2R53     CG2R53     CG3C50
    8     7     1	5 ;      OG2D1     CG2R53     CG3C50
    1     9    13	5 ;     CG3C50     CG2R57     CG2R51
    1     9    10	5 ;     CG3C50     CG2R57     CG2R51
   13     9    10	5 ;     CG2R51     CG2R57     CG2R51
    9    10    11	5 ;     CG2R57     CG2R51     SG2R50
    9    10    35	5 ;     CG2R57     CG2R51      HGR52
   11    10    35	5 ;     SG2R50     CG2R51      HGR52
   10    11    12	5 ;     CG2R51     SG2R50     CG2R51
   13    12    11	5 ;     CG2R51     CG2R51     SG2R50
   13    12    36	5 ;     CG2R51     CG2R51      HGR52
   11    12    36	5 ;     SG2R50     CG2R51      HGR52
    9    13    12	5 ;     CG2R57     CG2R51     CG2R51
    9    13    37	5 ;     CG2R57     CG2R51      HGR51
   12    13    37	5 ;     CG2R51     CG2R51      HGR51
   20    14    15	5 ;     CG2R61     CG2R61     CG2R61
   20    14     1	5 ;     CG2R61     CG2R61     CG3C50
   15    14     1	5 ;     CG2R61     CG2R61     CG3C50
   16    15    14	5 ;     CG2R61     CG2R61     CG2R61
   16    15    38	5 ;     CG2R61     CG2R61      HGR61
   14    15    38	5 ;     CG2R61     CG2R61      HGR61
   17    16    21	5 ;     CG2R66     CG2R61     CG2DC1
   17    16    15	5 ;     CG2R66     CG2R61     CG2R61
   21    16    15	5 ;     CG2DC1     CG2R61     CG2R61
   18    17    19	5 ;       FGR1     CG2R66     CG2R61
   18    17    16	5 ;       FGR1     CG2R66     CG2R61
   19    17    16	5 ;     CG2R61     CG2R66     CG2R61
   17    19    20	5 ;     CG2R66     CG2R61     CG2R61
   17    19    39	5 ;     CG2R66     CG2R61      HGR62
   20    19    39	5 ;     CG2R61     CG2R61      HGR62
   19    20    14	5 ;     CG2R61     CG2R61     CG2R61
   19    20    40	5 ;     CG2R61     CG2R61      HGR61
   14    20    40	5 ;     CG2R61     CG2R61      HGR61
   22    21    16	5 ;     CG2DC2     CG2DC1     CG2R61
   22    21    26	5 ;     CG2DC2     CG2DC1     CG2D1O
   16    21    26	5 ;     CG2R61     CG2DC1     CG2D1O
   23    22    21	5 ;     CG2DC2     CG2DC2     CG2DC1
   23    22    41	5 ;     CG2DC2     CG2DC2       HGA4
   21    22    41	5 ;     CG2DC1     CG2DC2       HGA4
   22    23    24	5 ;     CG2DC2     CG2DC2      CG321
   22    23    42	5 ;     CG2DC2     CG2DC2       HGA4
   24    23    42	5 ;      CG321     CG2DC2       HGA4
   23    24    25	5 ;     CG2DC2      CG321      NG311
   23    24    43	5 ;     CG2DC2      CG321       HGA2
   23    24    44	5 ;     CG2DC2      CG321       HGA2
   25    24    43	5 ;      NG311      CG321       HGA2
   25    24    44	5 ;      NG311      CG321       HGA2
   43    24    44	5 ;       HGA2      CG321       HGA2
   24    25    26	5 ;      CG321      NG311     CG2D1O
   24    25    27	5 ;      CG321      NG311     HGPAM1
   26    25    27	5 ;     CG2D1O      NG311     HGPAM1
   21    26    25	5 ;     CG2DC1     CG2D1O      NG311
   21    26    45	5 ;     CG2DC1     CG2D1O       HGA4
   25    26    45	5 ;      NG311     CG2D1O       HGA4
   29    28    30	5 ;     HGPAM2      NG321     HGPAM2
   29    28     4	5 ;     HGPAM2      NG321     CG3C51
   30    28     4	5 ;     HGPAM2      NG321     CG3C51

[ dihedrals ]
;	ai	  aj	ak	  al funct			  c0			c1			  c2			c3			  c4			c5
    7     1     2     4	 9 ;     CG2R53     CG3C50     NG3C51     CG3C51
    7     1     2     3	 9 ;     CG2R53     CG3C50     NG3C51       HGP1
   14     1     2     4	 9 ;     CG2R61     CG3C50     NG3C51     CG3C51
   14     1     2     3	 9 ;     CG2R61     CG3C50     NG3C51       HGP1
    9     1     2     4	 9 ;     CG2R57     CG3C50     NG3C51     CG3C51
    9     1     2     3	 9 ;     CG2R57     CG3C50     NG3C51       HGP1
    2     1     7     5	 9 ;     NG3C51     CG3C50     CG2R53     NG2R53
    2     1     7     8	 9 ;     NG3C51     CG3C50     CG2R53      OG2D1
   14     1     7     5	 9 ;     CG2R61     CG3C50     CG2R53     NG2R53
   14     1     7     8	 9 ;     CG2R61     CG3C50     CG2R53      OG2D1
    9     1     7     5	 9 ;     CG2R57     CG3C50     CG2R53     NG2R53
    9     1     7     8	 9 ;     CG2R57     CG3C50     CG2R53      OG2D1
    2     1    14    20	 9 ;     NG3C51     CG3C50     CG2R61     CG2R61
    2     1    14    15	 9 ;     NG3C51     CG3C50     CG2R61     CG2R61
    7     1    14    20	 9 ;     CG2R53     CG3C50     CG2R61     CG2R61
    7     1    14    15	 9 ;     CG2R53     CG3C50     CG2R61     CG2R61
    9     1    14    20	 9 ;     CG2R57     CG3C50     CG2R61     CG2R61
    9     1    14    15	 9 ;     CG2R57     CG3C50     CG2R61     CG2R61
    2     1     9    13	 9 ;     NG3C51     CG3C50     CG2R57     CG2R51
    2     1     9    10	 9 ;     NG3C51     CG3C50     CG2R57     CG2R51
    7     1     9    13	 9 ;     CG2R53     CG3C50     CG2R57     CG2R51
    7     1     9    10	 9 ;     CG2R53     CG3C50     CG2R57     CG2R51
   14     1     9    13	 9 ;     CG2R61     CG3C50     CG2R57     CG2R51
   14     1     9    10	 9 ;     CG2R61     CG3C50     CG2R57     CG2R51
    3     2     4    28	 9 ;       HGP1     NG3C51     CG3C51      NG321
    3     2     4     5	 9 ;       HGP1     NG3C51     CG3C51     NG2R53
    3     2     4    31	 9 ;       HGP1     NG3C51     CG3C51       HGA1
    1     2     4    28	 9 ;     CG3C50     NG3C51     CG3C51      NG321
    1     2     4     5	 9 ;     CG3C50     NG3C51     CG3C51     NG2R53
    1     2     4    31	 9 ;     CG3C50     NG3C51     CG3C51       HGA1
    5     4    28    29	 9 ;     NG2R53     CG3C51      NG321     HGPAM2
    5     4    28    30	 9 ;     NG2R53     CG3C51      NG321     HGPAM2
    2     4    28    29	 9 ;     NG3C51     CG3C51      NG321     HGPAM2
    2     4    28    30	 9 ;     NG3C51     CG3C51      NG321     HGPAM2
   31     4    28    29	 9 ;       HGA1     CG3C51      NG321     HGPAM2
   31     4    28    30	 9 ;       HGA1     CG3C51      NG321     HGPAM2
   28     4     5     6	 9 ;      NG321     CG3C51     NG2R53      CG331
   28     4     5     7	 9 ;      NG321     CG3C51     NG2R53     CG2R53
    2     4     5     6	 9 ;     NG3C51     CG3C51     NG2R53      CG331
    2     4     5     7	 9 ;     NG3C51     CG3C51     NG2R53     CG2R53
   31     4     5     6	 9 ;       HGA1     CG3C51     NG2R53      CG331
   31     4     5     7	 9 ;       HGA1     CG3C51     NG2R53     CG2R53
    4     5     6    32	 9 ;     CG3C51     NG2R53      CG331       HGA3
    4     5     6    33	 9 ;     CG3C51     NG2R53      CG331       HGA3
    4     5     6    34	 9 ;     CG3C51     NG2R53      CG331       HGA3
    7     5     6    32	 9 ;     CG2R53     NG2R53      CG331       HGA3
    7     5     6    33	 9 ;     CG2R53     NG2R53      CG331       HGA3
    7     5     6    34	 9 ;     CG2R53     NG2R53      CG331       HGA3
    6     5     7     8	 9 ;      CG331     NG2R53     CG2R53      OG2D1
    6     5     7     1	 9 ;      CG331     NG2R53     CG2R53     CG3C50
    4     5     7     8	 9 ;     CG3C51     NG2R53     CG2R53      OG2D1
    4     5     7     1	 9 ;     CG3C51     NG2R53     CG2R53     CG3C50
    1     9    13    12	 9 ;     CG3C50     CG2R57     CG2R51     CG2R51
    1     9    13    37	 9 ;     CG3C50     CG2R57     CG2R51      HGR51
   10     9    13    12	 9 ;     CG2R51     CG2R57     CG2R51     CG2R51
   10     9    13    37	 9 ;     CG2R51     CG2R57     CG2R51      HGR51
    1     9    10    11	 9 ;     CG3C50     CG2R57     CG2R51     SG2R50
    1     9    10    35	 9 ;     CG3C50     CG2R57     CG2R51      HGR52
   13     9    10    11	 9 ;     CG2R51     CG2R57     CG2R51     SG2R50
   13     9    10    35	 9 ;     CG2R51     CG2R57     CG2R51      HGR52
    9    10    11    12	 9 ;     CG2R57     CG2R51     SG2R50     CG2R51
   35    10    11    12	 9 ;      HGR52     CG2R51     SG2R50     CG2R51
   10    11    12    13	 9 ;     CG2R51     SG2R50     CG2R51     CG2R51
   10    11    12    36	 9 ;     CG2R51     SG2R50     CG2R51      HGR52
   11    12    13     9	 9 ;     SG2R50     CG2R51     CG2R51     CG2R57
   11    12    13    37	 9 ;     SG2R50     CG2R51     CG2R51      HGR51
   36    12    13     9	 9 ;      HGR52     CG2R51     CG2R51     CG2R57
   36    12    13    37	 9 ;      HGR52     CG2R51     CG2R51      HGR51
   15    14    20    19	 9 ;     CG2R61     CG2R61     CG2R61     CG2R61
   15    14    20    40	 9 ;     CG2R61     CG2R61     CG2R61      HGR61
    1    14    20    19	 9 ;     CG3C50     CG2R61     CG2R61     CG2R61
    1    14    20    40	 9 ;     CG3C50     CG2R61     CG2R61      HGR61
   20    14    15    16	 9 ;     CG2R61     CG2R61     CG2R61     CG2R61
   20    14    15    38	 9 ;     CG2R61     CG2R61     CG2R61      HGR61
    1    14    15    16	 9 ;     CG3C50     CG2R61     CG2R61     CG2R61
    1    14    15    38	 9 ;     CG3C50     CG2R61     CG2R61      HGR61
   14    15    16    17	 9 ;     CG2R61     CG2R61     CG2R61     CG2R66
   14    15    16    21	 9 ;     CG2R61     CG2R61     CG2R61     CG2DC1
   38    15    16    17	 9 ;      HGR61     CG2R61     CG2R61     CG2R66
   38    15    16    21	 9 ;      HGR61     CG2R61     CG2R61     CG2DC1
   21    16    17    18	 9 ;     CG2DC1     CG2R61     CG2R66       FGR1
   21    16    17    19	 9 ;     CG2DC1     CG2R61     CG2R66     CG2R61
   15    16    17    18	 9 ;     CG2R61     CG2R61     CG2R66       FGR1
   15    16    17    19	 9 ;     CG2R61     CG2R61     CG2R66     CG2R61
   17    16    21    22	 9 ;     CG2R66     CG2R61     CG2DC1     CG2DC2
   17    16    21    26	 9 ;     CG2R66     CG2R61     CG2DC1     CG2D1O
   15    16    21    22	 9 ;     CG2R61     CG2R61     CG2DC1     CG2DC2
   15    16    21    26	 9 ;     CG2R61     CG2R61     CG2DC1     CG2D1O
   18    17    19    20	 9 ;       FGR1     CG2R66     CG2R61     CG2R61
   18    17    19    39	 9 ;       FGR1     CG2R66     CG2R61      HGR62
   16    17    19    20	 9 ;     CG2R61     CG2R66     CG2R61     CG2R61
   16    17    19    39	 9 ;     CG2R61     CG2R66     CG2R61      HGR62
   17    19    20    14	 9 ;     CG2R66     CG2R61     CG2R61     CG2R61
   17    19    20    40	 9 ;     CG2R66     CG2R61     CG2R61      HGR61
   39    19    20    14	 9 ;      HGR62     CG2R61     CG2R61     CG2R61
   39    19    20    40	 9 ;      HGR62     CG2R61     CG2R61      HGR61
   16    21    22    23	 9 ;     CG2R61     CG2DC1     CG2DC2     CG2DC2
   16    21    22    41	 9 ;     CG2R61     CG2DC1     CG2DC2       HGA4
   26    21    22    23	 9 ;     CG2D1O     CG2DC1     CG2DC2     CG2DC2
   26    21    22    41	 9 ;     CG2D1O     CG2DC1     CG2DC2       HGA4
   22    21    26    25	 9 ;     CG2DC2     CG2DC1     CG2D1O      NG311
   22    21    26    45	 9 ;     CG2DC2     CG2DC1     CG2D1O       HGA4
   16    21    26    25	 9 ;     CG2R61     CG2DC1     CG2D1O      NG311
   16    21    26    45	 9 ;     CG2R61     CG2DC1     CG2D1O       HGA4
   21    22    23    24	 9 ;     CG2DC1     CG2DC2     CG2DC2      CG321
   21    22    23    42	 9 ;     CG2DC1     CG2DC2     CG2DC2       HGA4
   41    22    23    24	 9 ;       HGA4     CG2DC2     CG2DC2      CG321
   41    22    23    42	 9 ;       HGA4     CG2DC2     CG2DC2       HGA4
   22    23    24    25	 9 ;     CG2DC2     CG2DC2      CG321      NG311
   22    23    24    43	 9 ;     CG2DC2     CG2DC2      CG321       HGA2
   22    23    24    44	 9 ;     CG2DC2     CG2DC2      CG321       HGA2
   42    23    24    25	 9 ;       HGA4     CG2DC2      CG321      NG311
   42    23    24    43	 9 ;       HGA4     CG2DC2      CG321       HGA2
   42    23    24    44	 9 ;       HGA4     CG2DC2      CG321       HGA2
   23    24    25    26	 9 ;     CG2DC2      CG321      NG311     CG2D1O
   23    24    25    27	 9 ;     CG2DC2      CG321      NG311     HGPAM1
   43    24    25    26	 9 ;       HGA2      CG321      NG311     CG2D1O
   43    24    25    27	 9 ;       HGA2      CG321      NG311     HGPAM1
   44    24    25    26	 9 ;       HGA2      CG321      NG311     CG2D1O
   44    24    25    27	 9 ;       HGA2      CG321      NG311     HGPAM1
   24    25    26    21	 9 ;      CG321      NG311     CG2D1O     CG2DC1
   24    25    26    45	 9 ;      CG321      NG311     CG2D1O       HGA4
   27    25    26    21	 9 ;     HGPAM1      NG311     CG2D1O     CG2DC1
   27    25    26    45	 9 ;     HGPAM1      NG311     CG2D1O       HGA4

[ dihedrals ]
;	ai	  aj	ak	  al funct			  c0			c1			  c2			c3
    7     1     5     8	 2
   26    21    25    45	 2

