Great Red Owns Many ACres of Sand 
   45
    1LIG     C1    1  -1.618   0.434  -1.576
    1LIG     N1    2  -1.696   0.326  -1.646
    1LIG    HN1    3  -1.693   0.226  -1.627
    1LIG     C2    4  -1.766   0.388  -1.735
    1LIG     N2    5  -1.759   0.522  -1.736
    1LIG     C3    6  -1.807   0.613  -1.837
    1LIG     C4    7  -1.686   0.562  -1.627
    1LIG      O    8  -1.675   0.677  -1.585
    1LIG     C5    9  -1.619   0.410  -1.426
    1LIG     C6   10  -1.550   0.488  -1.334
    1LIG      S   11  -1.574   0.441  -1.172
    1LIG     C7   12  -1.679   0.315  -1.220
    1LIG     C8   13  -1.694   0.309  -1.357
    1LIG     C9   14  -1.469   0.432  -1.616
    1LIG    C10   15  -1.392   0.316  -1.597
    1LIG    C11   16  -1.258   0.306  -1.638
    1LIG    C12   17  -1.203   0.418  -1.702
    1LIG      F   18  -1.076   0.417  -1.745
    1LIG    C13   19  -1.276   0.535  -1.722
    1LIG    C14   20  -1.408   0.542  -1.678
    1LIG    C15   21  -1.182   0.180  -1.618
    1LIG    C16   22  -1.220   0.060  -1.680
    1LIG    C17   23  -1.144  -0.056  -1.663
    1LIG    C18   24  -1.031  -0.050  -1.584
    1LIG     N3   25  -0.990   0.062  -1.522
    1LIG    C19   26  -1.066   0.174  -1.540
    1LIG    HN2   27  -0.907   0.064  -1.463
    1LIG     N4   28  -1.845   0.321  -1.822
    1LIG     H1   29  -1.885   0.382  -1.893
    1LIG     H2   30  -1.807   0.236  -1.862
    1LIG     H3   31  -1.779   0.334  -1.827
    1LIG     H4   32  -1.860   0.558  -1.912
    1LIG     H5   33  -1.724   0.663  -1.883
    1LIG     H6   34  -1.872   0.685  -1.793
    1LIG     H7   35  -1.489   0.567  -1.361
    1LIG     H8   36  -1.726   0.250  -1.154
    1LIG     H9   37  -1.753   0.239  -1.405
    1LIG    H10   38  -1.435   0.235  -1.550
    1LIG    H11   39  -1.233   0.616  -1.769
    1LIG    H12   40  -1.462   0.630  -1.692
    1LIG    H13   41  -1.305   0.057  -1.738
    1LIG    H14   42  -1.172  -0.144  -1.709
    1LIG    H15   43  -0.950  -0.080  -1.646
    1LIG    H16   44  -1.061  -0.110  -1.500
    1LIG    H17   45  -1.036   0.260  -1.493
   0.00000   0.00000   0.00000
