; Created by cgenff_charmm2gmx.py

[ moleculetype ]
; Name			   nrexcl
LIG				 3

[ atoms ]
;	 nr		  type	resnr residue  atom   cgnr	   charge		mass  typeB    chargeB		massB
; residue	 1 LIG rtp LIG q	qsum
     1      CG311      1    LIG     C1      1     -0.018     12.011   ;
     2      NG2S1      1    LIG     N1      2     -0.397     14.007   ;
     3      CG2O1      1    LIG     C2      3      0.582     12.011   ;
     4      OG2D1      1    LIG     O1      4     -0.500     15.999   ;
     5       HGP1      1    LIG     H1      5      0.263      1.008   ;
     6     CG2R51      1    LIG     C3      6     -0.467     12.011   ;
     7     CG2R51      1    LIG     C4      7      0.082     12.011   ;
     8     CG2DC1      1    LIG     C5      8     -0.053     12.011   ;
     9     CG3RC1      1    LIG     C6      9      0.279     12.011   ;
    10     CG2DC2      1    LIG     C7     10     -0.227     12.011   ;
    11     CG2D2O      1    LIG     C8     11      0.189     12.011   ;
    12      NG311      1    LIG     N2     12     -0.908     14.007   ;
    13     HGPAM1      1    LIG     HN     13      0.450      1.008   ;
    14      NG2S0      1    LIG     N3     14     -0.187     14.007   ;
    15     CG2R51      1    LIG     C9     15     -0.115     12.011   ;
    16      CG2O6      1    LIG    C10     16      0.631     12.011   ;
    17      OG2D1      1    LIG     O2     17     -0.552     15.999   ;
    18      NG2S0      1    LIG     N4     18     -0.168     14.007   ;
    19      CG331      1    LIG    C11     19     -0.224     12.011   ;
    20      CG321      1    LIG    C12     20     -0.072     12.011   ;
    21      CG321      1    LIG    C13     21     -0.133     12.011   ;
    22      CG321      1    LIG    C14     22     -0.194     12.011   ;
    23      CG331      1    LIG    C15     23     -0.270     12.011   ;
    24      CG321      1    LIG    C16     24     -0.095     12.011   ;
    25     CG2R61      1    LIG    C17     25      0.057     12.011   ;
    26     CG2R61      1    LIG    C18     26     -0.218     12.011   ;
    27     CG2R66      1    LIG    C19     27      0.261     12.011   ;
    28       FGR1      1    LIG     F1     28     -0.210     18.998   ;
    29     CG2R61      1    LIG    C20     29     -0.240     12.011   ;
    30     CG2R66      1    LIG    C21     30      0.261     12.011   ;
    31     CG2R61      1    LIG    C22     31     -0.218     12.011   ;
    32       FGR1      1    LIG     F2     32     -0.210     18.998   ;
    33      CG311      1    LIG    C23     33      0.111     12.011   ;
    34      CG314      1    LIG    C24     34      0.081     12.011   ;
    35      NG3P2      1    LIG     N5     35     -0.494     14.007   ;
    36      CG324      1    LIG    C25     36      0.181     12.011   ;
    37       HGP2      1    LIG     H2     37      0.346      1.008   ;
    38       HGP2      1    LIG     H3     38      0.346      1.008   ;
    39     CG2R61      1    LIG    C26     39      0.019     12.011   ;
    40     CG2R61      1    LIG    C27     40     -0.193     12.011   ;
    41     CG2R61      1    LIG    C28     41     -0.115     12.011   ;
    42      CG321      1    LIG    C29     42      0.138     12.011   ;
    43     CG2R61      1    LIG    C30     43     -0.116     12.011   ;
    44     CG2R61      1    LIG    C31     44     -0.112     12.011   ;
    45     CG2R61      1    LIG    C32     45     -0.111     12.011   ;
    46      OG311      1    LIG     O3     46     -0.598     15.999   ;
    47       HGP1      1    LIG     H4     47      0.422      1.008   ;
    48       HGA1      1    LIG     HC     48      0.090      1.008   ;
    49       HGA4      1    LIG    HC1     49      0.198      1.008   ;
    50       HGA4      1    LIG    HC2     50      0.153      1.008   ;
    51       HGA4      1    LIG    HC3     51      0.158      1.008   ;
    52      HGR52      1    LIG    HC4     52      0.198      1.008   ;
    53       HGA3      1    LIG    HC5     53      0.090      1.008   ;
    54       HGA3      1    LIG    HC6     54      0.090      1.008   ;
    55       HGA3      1    LIG    HC7     55      0.090      1.008   ;
    56       HGA2      1    LIG    HC8     56      0.090      1.008   ;
    57       HGA2      1    LIG    HC9     57      0.090      1.008   ;
    58       HGA2      1    LIG   HC10     58      0.090      1.008   ;
    59       HGA2      1    LIG   HC11     59      0.090      1.008   ;
    60       HGA2      1    LIG   HC12     60      0.090      1.008   ;
    61       HGA2      1    LIG   HC13     61      0.090      1.008   ;
    62       HGA3      1    LIG   HC14     62      0.090      1.008   ;
    63       HGA3      1    LIG   HC15     63      0.090      1.008   ;
    64       HGA3      1    LIG   HC16     64      0.090      1.008   ;
    65       HGA2      1    LIG   HC17     65      0.090      1.008   ;
    66       HGA2      1    LIG   HC18     66      0.090      1.008   ;
    67      HGR62      1    LIG   HC19     67      0.174      1.008   ;
    68      HGR62      1    LIG   HC20     68      0.186      1.008   ;
    69      HGR62      1    LIG   HC21     69      0.174      1.008   ;
    70       HGA1      1    LIG   HC22     70      0.090      1.008   ;
    71       HGA1      1    LIG   HC23     71      0.121      1.008   ;
    72       HGA2      1    LIG   HC24     72      0.090      1.008   ;
    73       HGA2      1    LIG   HC25     73      0.090      1.008   ;
    74      HGR61      1    LIG   HC26     74      0.116      1.008   ;
    75       HGA2      1    LIG   HC27     75      0.090      1.008   ;
    76       HGA2      1    LIG   HC28     76      0.090      1.008   ;
    77      HGR61      1    LIG   HC29     77      0.116      1.008   ;
    78      HGR61      1    LIG   HC30     78      0.116      1.008   ;
    79      HGR61      1    LIG   HC31     79      0.116      1.008   ;
    80       HGA1      1    LIG    H38     80      0.090      1.008   ;

[ bonds ]
;	ai	  aj funct			  c0			c1			  c2			c3
    1    24	 1 ;       CG311      CG321
    1     2	 1 ;       CG311      NG2S1
    1    33	 1 ;       CG311      CG311
    1    48	 1 ;       CG311       HGA1
    2     3	 1 ;       NG2S1      CG2O1
    2     5	 1 ;       NG2S1       HGP1
    3     6	 1 ;       CG2O1     CG2R51
    3     4	 1 ;       CG2O1      OG2D1
    6     7	 1 ;      CG2R51     CG2R51
    6    15	 1 ;      CG2R51     CG2R51
    7     9	 1 ;      CG2R51     CG3RC1
    7     8	 1 ;      CG2R51     CG2DC1
    8    10	 1 ;      CG2DC1     CG2DC2
    8    49	 1 ;      CG2DC1       HGA4
    9    12	 1 ;      CG3RC1      NG311
    9    14	 1 ;      CG3RC1      NG2S0
    9    80	 1 ;      CG3RC1       HGA1
   10    11	 1 ;      CG2DC2     CG2D2O
   10    50	 1 ;      CG2DC2       HGA4
   11    12	 1 ;      CG2D2O      NG311
   11    51	 1 ;      CG2D2O       HGA4
   12    13	 1 ;       NG311     HGPAM1
   14    16	 1 ;       NG2S0      CG2O6
   14    15	 1 ;       NG2S0     CG2R51
   15    52	 1 ;      CG2R51      HGR52
   16    17	 1 ;       CG2O6      OG2D1
   16    18	 1 ;       CG2O6      NG2S0
   18    20	 1 ;       NG2S0      CG321
   18    19	 1 ;       NG2S0      CG331
   19    53	 1 ;       CG331       HGA3
   19    54	 1 ;       CG331       HGA3
   19    55	 1 ;       CG331       HGA3
   20    21	 1 ;       CG321      CG321
   20    56	 1 ;       CG321       HGA2
   20    57	 1 ;       CG321       HGA2
   21    22	 1 ;       CG321      CG321
   21    58	 1 ;       CG321       HGA2
   21    59	 1 ;       CG321       HGA2
   22    23	 1 ;       CG321      CG331
   22    60	 1 ;       CG321       HGA2
   22    61	 1 ;       CG321       HGA2
   23    62	 1 ;       CG331       HGA3
   23    63	 1 ;       CG331       HGA3
   23    64	 1 ;       CG331       HGA3
   24    25	 1 ;       CG321     CG2R61
   24    65	 1 ;       CG321       HGA2
   24    66	 1 ;       CG321       HGA2
   25    31	 1 ;      CG2R61     CG2R61
   25    26	 1 ;      CG2R61     CG2R61
   26    27	 1 ;      CG2R61     CG2R66
   26    67	 1 ;      CG2R61      HGR62
   27    29	 1 ;      CG2R66     CG2R61
   27    28	 1 ;      CG2R66       FGR1
   29    30	 1 ;      CG2R61     CG2R66
   29    68	 1 ;      CG2R61      HGR62
   30    32	 1 ;      CG2R66       FGR1
   30    31	 1 ;      CG2R66     CG2R61
   31    69	 1 ;      CG2R61      HGR62
   33    34	 1 ;       CG311      CG314
   33    46	 1 ;       CG311      OG311
   33    70	 1 ;       CG311       HGA1
   34    35	 1 ;       CG314      NG3P2
   34    42	 1 ;       CG314      CG321
   34    71	 1 ;       CG314       HGA1
   35    37	 1 ;       NG3P2       HGP2
   35    38	 1 ;       NG3P2       HGP2
   35    36	 1 ;       NG3P2      CG324
   36    39	 1 ;       CG324     CG2R61
   36    72	 1 ;       CG324       HGA2
   36    73	 1 ;       CG324       HGA2
   39    40	 1 ;      CG2R61     CG2R61
   39    41	 1 ;      CG2R61     CG2R61
   40    42	 1 ;      CG2R61      CG321
   40    43	 1 ;      CG2R61     CG2R61
   41    45	 1 ;      CG2R61     CG2R61
   41    74	 1 ;      CG2R61      HGR61
   42    75	 1 ;       CG321       HGA2
   42    76	 1 ;       CG321       HGA2
   43    44	 1 ;      CG2R61     CG2R61
   43    77	 1 ;      CG2R61      HGR61
   44    45	 1 ;      CG2R61     CG2R61
   44    78	 1 ;      CG2R61      HGR61
   45    79	 1 ;      CG2R61      HGR61
   46    47	 1 ;       OG311       HGP1

[ pairs ]
;	ai	  aj funct			  c0			c1			  c2			c3
    1     6	 1
    1     4	 1
    1    31	 1
    1    26	 1
    1    35	 1
    1    42	 1
    1    71	 1
    1    47	 1
    2    25	 1
    2    65	 1
    2    66	 1
    2    34	 1
    2    46	 1
    2    70	 1
    2     7	 1
    2    15	 1
    3    24	 1
    3    33	 1
    3    48	 1
    3     9	 1
    3     8	 1
    3    14	 1
    3    52	 1
    4     5	 1
    4     7	 1
    4    15	 1
    5    24	 1
    5    33	 1
    5    48	 1
    5     6	 1
    6    12	 1
    6    80	 1
    6    10	 1
    6    49	 1
    6    16	 1
    7    52	 1
    7    11	 1
    7    50	 1
    7    13	 1
    7    16	 1
    8    15	 1
    8    12	 1
    8    14	 1
    8    80	 1
    8    51	 1
    9    10	 1
    9    49	 1
    9    51	 1
    9    17	 1
    9    18	 1
    9    52	 1
   10    13	 1
   11    49	 1
   11    14	 1
   11    80	 1
   12    16	 1
   12    15	 1
   12    50	 1
   13    14	 1
   13    80	 1
   13    51	 1
   14    20	 1
   14    19	 1
   15    80	 1
   15    17	 1
   15    18	 1
   16    80	 1
   16    52	 1
   16    21	 1
   16    56	 1
   16    57	 1
   16    53	 1
   16    54	 1
   16    55	 1
   17    20	 1
   17    19	 1
   18    22	 1
   18    58	 1
   18    59	 1
   19    21	 1
   19    56	 1
   19    57	 1
   20    53	 1
   20    54	 1
   20    55	 1
   20    23	 1
   20    60	 1
   20    61	 1
   21    62	 1
   21    63	 1
   21    64	 1
   22    56	 1
   22    57	 1
   23    58	 1
   23    59	 1
   24    34	 1
   24    46	 1
   24    70	 1
   24    30	 1
   24    69	 1
   24    27	 1
   24    67	 1
   25    33	 1
   25    48	 1
   25    29	 1
   25    28	 1
   25    32	 1
   26    65	 1
   26    66	 1
   26    30	 1
   26    69	 1
   26    68	 1
   27    31	 1
   27    32	 1
   28    67	 1
   28    30	 1
   28    68	 1
   29    67	 1
   29    69	 1
   31    65	 1
   31    66	 1
   31    67	 1
   31    68	 1
   32    68	 1
   32    69	 1
   33    65	 1
   33    66	 1
   33    37	 1
   33    38	 1
   33    36	 1
   33    40	 1
   33    75	 1
   33    76	 1
   34    48	 1
   34    47	 1
   34    39	 1
   34    72	 1
   34    73	 1
   34    43	 1
   35    46	 1
   35    70	 1
   35    40	 1
   35    75	 1
   35    76	 1
   35    41	 1
   36    42	 1
   36    71	 1
   36    43	 1
   36    45	 1
   36    74	 1
   37    42	 1
   37    71	 1
   37    39	 1
   37    72	 1
   37    73	 1
   38    42	 1
   38    71	 1
   38    39	 1
   38    72	 1
   38    73	 1
   39    75	 1
   39    76	 1
   39    44	 1
   39    77	 1
   39    79	 1
   40    71	 1
   40    72	 1
   40    73	 1
   40    45	 1
   40    74	 1
   40    78	 1
   41    72	 1
   41    73	 1
   41    42	 1
   41    43	 1
   41    78	 1
   42    46	 1
   42    70	 1
   42    44	 1
   42    77	 1
   43    75	 1
   43    76	 1
   43    79	 1
   44    74	 1
   45    77	 1
   46    48	 1
   46    71	 1
   47    70	 1
   48    65	 1
   48    66	 1
   48    70	 1
   49    50	 1
   50    51	 1
   56    58	 1
   56    59	 1
   57    58	 1
   57    59	 1
   58    60	 1
   58    61	 1
   59    60	 1
   59    61	 1
   60    62	 1
   60    63	 1
   60    64	 1
   61    62	 1
   61    63	 1
   61    64	 1
   70    71	 1
   71    75	 1
   71    76	 1
   74    79	 1
   77    78	 1
   78    79	 1

[ angles ]
;	ai	  aj	ak funct			c0			  c1			c2			  c3
   24     1     2	5 ;      CG321      CG311      NG2S1
   24     1    33	5 ;      CG321      CG311      CG311
   24     1    48	5 ;      CG321      CG311       HGA1
    2     1    33	5 ;      NG2S1      CG311      CG311
    2     1    48	5 ;      NG2S1      CG311       HGA1
   33     1    48	5 ;      CG311      CG311       HGA1
    3     2     5	5 ;      CG2O1      NG2S1       HGP1
    3     2     1	5 ;      CG2O1      NG2S1      CG311
    5     2     1	5 ;       HGP1      NG2S1      CG311
    6     3     4	5 ;     CG2R51      CG2O1      OG2D1
    6     3     2	5 ;     CG2R51      CG2O1      NG2S1
    4     3     2	5 ;      OG2D1      CG2O1      NG2S1
    7     6    15	5 ;     CG2R51     CG2R51     CG2R51
    7     6     3	5 ;     CG2R51     CG2R51      CG2O1
   15     6     3	5 ;     CG2R51     CG2R51      CG2O1
    9     7     8	5 ;     CG3RC1     CG2R51     CG2DC1
    9     7     6	5 ;     CG3RC1     CG2R51     CG2R51
    8     7     6	5 ;     CG2DC1     CG2R51     CG2R51
   10     8     7	5 ;     CG2DC2     CG2DC1     CG2R51
   10     8    49	5 ;     CG2DC2     CG2DC1       HGA4
    7     8    49	5 ;     CG2R51     CG2DC1       HGA4
   12     9    14	5 ;      NG311     CG3RC1      NG2S0
   12     9     7	5 ;      NG311     CG3RC1     CG2R51
   12     9    80	5 ;      NG311     CG3RC1       HGA1
   14     9     7	5 ;      NG2S0     CG3RC1     CG2R51
   14     9    80	5 ;      NG2S0     CG3RC1       HGA1
    7     9    80	5 ;     CG2R51     CG3RC1       HGA1
   11    10     8	5 ;     CG2D2O     CG2DC2     CG2DC1
   11    10    50	5 ;     CG2D2O     CG2DC2       HGA4
    8    10    50	5 ;     CG2DC1     CG2DC2       HGA4
   12    11    10	5 ;      NG311     CG2D2O     CG2DC2
   12    11    51	5 ;      NG311     CG2D2O       HGA4
   10    11    51	5 ;     CG2DC2     CG2D2O       HGA4
   13    12    11	5 ;     HGPAM1      NG311     CG2D2O
   13    12     9	5 ;     HGPAM1      NG311     CG3RC1
   11    12     9	5 ;     CG2D2O      NG311     CG3RC1
    9    14    16	5 ;     CG3RC1      NG2S0      CG2O6
    9    14    15	5 ;     CG3RC1      NG2S0     CG2R51
   16    14    15	5 ;      CG2O6      NG2S0     CG2R51
   14    15     6	5 ;      NG2S0     CG2R51     CG2R51
   14    15    52	5 ;      NG2S0     CG2R51      HGR52
    6    15    52	5 ;     CG2R51     CG2R51      HGR52
   17    16    18	5 ;      OG2D1      CG2O6      NG2S0
   17    16    14	5 ;      OG2D1      CG2O6      NG2S0
   18    16    14	5 ;      NG2S0      CG2O6      NG2S0
   16    18    20	5 ;      CG2O6      NG2S0      CG321
   16    18    19	5 ;      CG2O6      NG2S0      CG331
   20    18    19	5 ;      CG321      NG2S0      CG331
   18    19    53	5 ;      NG2S0      CG331       HGA3
   18    19    54	5 ;      NG2S0      CG331       HGA3
   18    19    55	5 ;      NG2S0      CG331       HGA3
   53    19    54	5 ;       HGA3      CG331       HGA3
   53    19    55	5 ;       HGA3      CG331       HGA3
   54    19    55	5 ;       HGA3      CG331       HGA3
   18    20    21	5 ;      NG2S0      CG321      CG321
   18    20    56	5 ;      NG2S0      CG321       HGA2
   18    20    57	5 ;      NG2S0      CG321       HGA2
   21    20    56	5 ;      CG321      CG321       HGA2
   21    20    57	5 ;      CG321      CG321       HGA2
   56    20    57	5 ;       HGA2      CG321       HGA2
   20    21    22	5 ;      CG321      CG321      CG321
   20    21    58	5 ;      CG321      CG321       HGA2
   20    21    59	5 ;      CG321      CG321       HGA2
   22    21    58	5 ;      CG321      CG321       HGA2
   22    21    59	5 ;      CG321      CG321       HGA2
   58    21    59	5 ;       HGA2      CG321       HGA2
   23    22    21	5 ;      CG331      CG321      CG321
   23    22    60	5 ;      CG331      CG321       HGA2
   23    22    61	5 ;      CG331      CG321       HGA2
   21    22    60	5 ;      CG321      CG321       HGA2
   21    22    61	5 ;      CG321      CG321       HGA2
   60    22    61	5 ;       HGA2      CG321       HGA2
   22    23    62	5 ;      CG321      CG331       HGA3
   22    23    63	5 ;      CG321      CG331       HGA3
   22    23    64	5 ;      CG321      CG331       HGA3
   62    23    63	5 ;       HGA3      CG331       HGA3
   62    23    64	5 ;       HGA3      CG331       HGA3
   63    23    64	5 ;       HGA3      CG331       HGA3
   25    24     1	5 ;     CG2R61      CG321      CG311
   25    24    65	5 ;     CG2R61      CG321       HGA2
   25    24    66	5 ;     CG2R61      CG321       HGA2
    1    24    65	5 ;      CG311      CG321       HGA2
    1    24    66	5 ;      CG311      CG321       HGA2
   65    24    66	5 ;       HGA2      CG321       HGA2
   31    25    26	5 ;     CG2R61     CG2R61     CG2R61
   31    25    24	5 ;     CG2R61     CG2R61      CG321
   26    25    24	5 ;     CG2R61     CG2R61      CG321
   27    26    25	5 ;     CG2R66     CG2R61     CG2R61
   27    26    67	5 ;     CG2R66     CG2R61      HGR62
   25    26    67	5 ;     CG2R61     CG2R61      HGR62
   29    27    28	5 ;     CG2R61     CG2R66       FGR1
   29    27    26	5 ;     CG2R61     CG2R66     CG2R61
   28    27    26	5 ;       FGR1     CG2R66     CG2R61
   30    29    27	5 ;     CG2R66     CG2R61     CG2R66
   30    29    68	5 ;     CG2R66     CG2R61      HGR62
   27    29    68	5 ;     CG2R66     CG2R61      HGR62
   32    30    29	5 ;       FGR1     CG2R66     CG2R61
   32    30    31	5 ;       FGR1     CG2R66     CG2R61
   29    30    31	5 ;     CG2R61     CG2R66     CG2R61
   30    31    25	5 ;     CG2R66     CG2R61     CG2R61
   30    31    69	5 ;     CG2R66     CG2R61      HGR62
   25    31    69	5 ;     CG2R61     CG2R61      HGR62
    1    33    34	5 ;      CG311      CG311      CG314
    1    33    46	5 ;      CG311      CG311      OG311
    1    33    70	5 ;      CG311      CG311       HGA1
   34    33    46	5 ;      CG314      CG311      OG311
   34    33    70	5 ;      CG314      CG311       HGA1
   46    33    70	5 ;      OG311      CG311       HGA1
   33    34    35	5 ;      CG311      CG314      NG3P2
   33    34    42	5 ;      CG311      CG314      CG321
   33    34    71	5 ;      CG311      CG314       HGA1
   35    34    42	5 ;      NG3P2      CG314      CG321
   35    34    71	5 ;      NG3P2      CG314       HGA1
   42    34    71	5 ;      CG321      CG314       HGA1
   37    35    38	5 ;       HGP2      NG3P2       HGP2
   37    35    34	5 ;       HGP2      NG3P2      CG314
   37    35    36	5 ;       HGP2      NG3P2      CG324
   38    35    34	5 ;       HGP2      NG3P2      CG314
   38    35    36	5 ;       HGP2      NG3P2      CG324
   34    35    36	5 ;      CG314      NG3P2      CG324
   35    36    39	5 ;      NG3P2      CG324     CG2R61
   35    36    72	5 ;      NG3P2      CG324       HGA2
   35    36    73	5 ;      NG3P2      CG324       HGA2
   39    36    72	5 ;     CG2R61      CG324       HGA2
   39    36    73	5 ;     CG2R61      CG324       HGA2
   72    36    73	5 ;       HGA2      CG324       HGA2
   36    39    40	5 ;      CG324     CG2R61     CG2R61
   36    39    41	5 ;      CG324     CG2R61     CG2R61
   40    39    41	5 ;     CG2R61     CG2R61     CG2R61
   42    40    39	5 ;      CG321     CG2R61     CG2R61
   42    40    43	5 ;      CG321     CG2R61     CG2R61
   39    40    43	5 ;     CG2R61     CG2R61     CG2R61
   39    41    45	5 ;     CG2R61     CG2R61     CG2R61
   39    41    74	5 ;     CG2R61     CG2R61      HGR61
   45    41    74	5 ;     CG2R61     CG2R61      HGR61
   34    42    40	5 ;      CG314      CG321     CG2R61
   34    42    75	5 ;      CG314      CG321       HGA2
   34    42    76	5 ;      CG314      CG321       HGA2
   40    42    75	5 ;     CG2R61      CG321       HGA2
   40    42    76	5 ;     CG2R61      CG321       HGA2
   75    42    76	5 ;       HGA2      CG321       HGA2
   40    43    44	5 ;     CG2R61     CG2R61     CG2R61
   40    43    77	5 ;     CG2R61     CG2R61      HGR61
   44    43    77	5 ;     CG2R61     CG2R61      HGR61
   43    44    45	5 ;     CG2R61     CG2R61     CG2R61
   43    44    78	5 ;     CG2R61     CG2R61      HGR61
   45    44    78	5 ;     CG2R61     CG2R61      HGR61
   41    45    44	5 ;     CG2R61     CG2R61     CG2R61
   41    45    79	5 ;     CG2R61     CG2R61      HGR61
   44    45    79	5 ;     CG2R61     CG2R61      HGR61
   33    46    47	5 ;      CG311      OG311       HGP1

[ dihedrals ]
;	ai	  aj	ak	  al funct			  c0			c1			  c2			c3			  c4			c5
    2     1    24    25	 9 ;      NG2S1      CG311      CG321     CG2R61
    2     1    24    65	 9 ;      NG2S1      CG311      CG321       HGA2
    2     1    24    66	 9 ;      NG2S1      CG311      CG321       HGA2
   33     1    24    25	 9 ;      CG311      CG311      CG321     CG2R61
   33     1    24    65	 9 ;      CG311      CG311      CG321       HGA2
   33     1    24    66	 9 ;      CG311      CG311      CG321       HGA2
   48     1    24    25	 9 ;       HGA1      CG311      CG321     CG2R61
   48     1    24    65	 9 ;       HGA1      CG311      CG321       HGA2
   48     1    24    66	 9 ;       HGA1      CG311      CG321       HGA2
   24     1     2     3	 9 ;      CG321      CG311      NG2S1      CG2O1
   24     1     2     5	 9 ;      CG321      CG311      NG2S1       HGP1
   33     1     2     3	 9 ;      CG311      CG311      NG2S1      CG2O1
   33     1     2     5	 9 ;      CG311      CG311      NG2S1       HGP1
   48     1     2     3	 9 ;       HGA1      CG311      NG2S1      CG2O1
   48     1     2     5	 9 ;       HGA1      CG311      NG2S1       HGP1
   24     1    33    34	 9 ;      CG321      CG311      CG311      CG314
   24     1    33    46	 9 ;      CG321      CG311      CG311      OG311
   24     1    33    70	 9 ;      CG321      CG311      CG311       HGA1
    2     1    33    34	 9 ;      NG2S1      CG311      CG311      CG314
    2     1    33    46	 9 ;      NG2S1      CG311      CG311      OG311
    2     1    33    70	 9 ;      NG2S1      CG311      CG311       HGA1
   48     1    33    34	 9 ;       HGA1      CG311      CG311      CG314
   48     1    33    46	 9 ;       HGA1      CG311      CG311      OG311
   48     1    33    70	 9 ;       HGA1      CG311      CG311       HGA1
    5     2     3     6	 9 ;       HGP1      NG2S1      CG2O1     CG2R51
    5     2     3     4	 9 ;       HGP1      NG2S1      CG2O1      OG2D1
    1     2     3     6	 9 ;      CG311      NG2S1      CG2O1     CG2R51
    1     2     3     4	 9 ;      CG311      NG2S1      CG2O1      OG2D1
    4     3     6     7	 9 ;      OG2D1      CG2O1     CG2R51     CG2R51
    4     3     6    15	 9 ;      OG2D1      CG2O1     CG2R51     CG2R51
    2     3     6     7	 9 ;      NG2S1      CG2O1     CG2R51     CG2R51
    2     3     6    15	 9 ;      NG2S1      CG2O1     CG2R51     CG2R51
   15     6     7     9	 9 ;     CG2R51     CG2R51     CG2R51     CG3RC1
   15     6     7     8	 9 ;     CG2R51     CG2R51     CG2R51     CG2DC1
    3     6     7     9	 9 ;      CG2O1     CG2R51     CG2R51     CG3RC1
    3     6     7     8	 9 ;      CG2O1     CG2R51     CG2R51     CG2DC1
    7     6    15    14	 9 ;     CG2R51     CG2R51     CG2R51      NG2S0
    7     6    15    52	 9 ;     CG2R51     CG2R51     CG2R51      HGR52
    3     6    15    14	 9 ;      CG2O1     CG2R51     CG2R51      NG2S0
    3     6    15    52	 9 ;      CG2O1     CG2R51     CG2R51      HGR52
    8     7     9    12	 9 ;     CG2DC1     CG2R51     CG3RC1      NG311
    8     7     9    14	 9 ;     CG2DC1     CG2R51     CG3RC1      NG2S0
    8     7     9    80	 9 ;     CG2DC1     CG2R51     CG3RC1       HGA1
    6     7     9    12	 9 ;     CG2R51     CG2R51     CG3RC1      NG311
    6     7     9    14	 9 ;     CG2R51     CG2R51     CG3RC1      NG2S0
    6     7     9    80	 9 ;     CG2R51     CG2R51     CG3RC1       HGA1
    9     7     8    10	 9 ;     CG3RC1     CG2R51     CG2DC1     CG2DC2
    9     7     8    49	 9 ;     CG3RC1     CG2R51     CG2DC1       HGA4
    6     7     8    10	 9 ;     CG2R51     CG2R51     CG2DC1     CG2DC2
    6     7     8    49	 9 ;     CG2R51     CG2R51     CG2DC1       HGA4
    7     8    10    11	 9 ;     CG2R51     CG2DC1     CG2DC2     CG2D2O
    7     8    10    50	 9 ;     CG2R51     CG2DC1     CG2DC2       HGA4
   49     8    10    11	 9 ;       HGA4     CG2DC1     CG2DC2     CG2D2O
   49     8    10    50	 9 ;       HGA4     CG2DC1     CG2DC2       HGA4
   14     9    12    13	 9 ;      NG2S0     CG3RC1      NG311     HGPAM1
   14     9    12    11	 9 ;      NG2S0     CG3RC1      NG311     CG2D2O
    7     9    12    13	 9 ;     CG2R51     CG3RC1      NG311     HGPAM1
    7     9    12    11	 9 ;     CG2R51     CG3RC1      NG311     CG2D2O
   80     9    12    13	 9 ;       HGA1     CG3RC1      NG311     HGPAM1
   80     9    12    11	 9 ;       HGA1     CG3RC1      NG311     CG2D2O
   12     9    14    16	 9 ;      NG311     CG3RC1      NG2S0      CG2O6
   12     9    14    15	 9 ;      NG311     CG3RC1      NG2S0     CG2R51
    7     9    14    16	 9 ;     CG2R51     CG3RC1      NG2S0      CG2O6
    7     9    14    15	 9 ;     CG2R51     CG3RC1      NG2S0     CG2R51
   80     9    14    16	 9 ;       HGA1     CG3RC1      NG2S0      CG2O6
   80     9    14    15	 9 ;       HGA1     CG3RC1      NG2S0     CG2R51
    8    10    11    12	 9 ;     CG2DC1     CG2DC2     CG2D2O      NG311
    8    10    11    51	 9 ;     CG2DC1     CG2DC2     CG2D2O       HGA4
   50    10    11    12	 9 ;       HGA4     CG2DC2     CG2D2O      NG311
   50    10    11    51	 9 ;       HGA4     CG2DC2     CG2D2O       HGA4
   10    11    12    13	 9 ;     CG2DC2     CG2D2O      NG311     HGPAM1
   10    11    12     9	 9 ;     CG2DC2     CG2D2O      NG311     CG3RC1
   51    11    12    13	 9 ;       HGA4     CG2D2O      NG311     HGPAM1
   51    11    12     9	 9 ;       HGA4     CG2D2O      NG311     CG3RC1
    9    14    16    17	 9 ;     CG3RC1      NG2S0      CG2O6      OG2D1
    9    14    16    18	 9 ;     CG3RC1      NG2S0      CG2O6      NG2S0
   15    14    16    17	 9 ;     CG2R51      NG2S0      CG2O6      OG2D1
   15    14    16    18	 9 ;     CG2R51      NG2S0      CG2O6      NG2S0
    9    14    15     6	 9 ;     CG3RC1      NG2S0     CG2R51     CG2R51
    9    14    15    52	 9 ;     CG3RC1      NG2S0     CG2R51      HGR52
   16    14    15     6	 9 ;      CG2O6      NG2S0     CG2R51     CG2R51
   16    14    15    52	 9 ;      CG2O6      NG2S0     CG2R51      HGR52
   17    16    18    20	 9 ;      OG2D1      CG2O6      NG2S0      CG321
   17    16    18    19	 9 ;      OG2D1      CG2O6      NG2S0      CG331
   14    16    18    20	 9 ;      NG2S0      CG2O6      NG2S0      CG321
   14    16    18    19	 9 ;      NG2S0      CG2O6      NG2S0      CG331
   16    18    20    21	 9 ;      CG2O6      NG2S0      CG321      CG321
   16    18    20    56	 9 ;      CG2O6      NG2S0      CG321       HGA2
   16    18    20    57	 9 ;      CG2O6      NG2S0      CG321       HGA2
   19    18    20    21	 9 ;      CG331      NG2S0      CG321      CG321
   19    18    20    56	 9 ;      CG331      NG2S0      CG321       HGA2
   19    18    20    57	 9 ;      CG331      NG2S0      CG321       HGA2
   16    18    19    53	 9 ;      CG2O6      NG2S0      CG331       HGA3
   16    18    19    54	 9 ;      CG2O6      NG2S0      CG331       HGA3
   16    18    19    55	 9 ;      CG2O6      NG2S0      CG331       HGA3
   20    18    19    53	 9 ;      CG321      NG2S0      CG331       HGA3
   20    18    19    54	 9 ;      CG321      NG2S0      CG331       HGA3
   20    18    19    55	 9 ;      CG321      NG2S0      CG331       HGA3
   18    20    21    22	 9 ;      NG2S0      CG321      CG321      CG321
   18    20    21    58	 9 ;      NG2S0      CG321      CG321       HGA2
   18    20    21    59	 9 ;      NG2S0      CG321      CG321       HGA2
   56    20    21    22	 9 ;       HGA2      CG321      CG321      CG321
   56    20    21    58	 9 ;       HGA2      CG321      CG321       HGA2
   56    20    21    59	 9 ;       HGA2      CG321      CG321       HGA2
   57    20    21    22	 9 ;       HGA2      CG321      CG321      CG321
   57    20    21    58	 9 ;       HGA2      CG321      CG321       HGA2
   57    20    21    59	 9 ;       HGA2      CG321      CG321       HGA2
   20    21    22    23	 9 ;      CG321      CG321      CG321      CG331
   20    21    22    60	 9 ;      CG321      CG321      CG321       HGA2
   20    21    22    61	 9 ;      CG321      CG321      CG321       HGA2
   58    21    22    23	 9 ;       HGA2      CG321      CG321      CG331
   58    21    22    60	 9 ;       HGA2      CG321      CG321       HGA2
   58    21    22    61	 9 ;       HGA2      CG321      CG321       HGA2
   59    21    22    23	 9 ;       HGA2      CG321      CG321      CG331
   59    21    22    60	 9 ;       HGA2      CG321      CG321       HGA2
   59    21    22    61	 9 ;       HGA2      CG321      CG321       HGA2
   21    22    23    62	 9 ;      CG321      CG321      CG331       HGA3
   21    22    23    63	 9 ;      CG321      CG321      CG331       HGA3
   21    22    23    64	 9 ;      CG321      CG321      CG331       HGA3
   60    22    23    62	 9 ;       HGA2      CG321      CG331       HGA3
   60    22    23    63	 9 ;       HGA2      CG321      CG331       HGA3
   60    22    23    64	 9 ;       HGA2      CG321      CG331       HGA3
   61    22    23    62	 9 ;       HGA2      CG321      CG331       HGA3
   61    22    23    63	 9 ;       HGA2      CG321      CG331       HGA3
   61    22    23    64	 9 ;       HGA2      CG321      CG331       HGA3
    1    24    25    31	 9 ;      CG311      CG321     CG2R61     CG2R61
    1    24    25    26	 9 ;      CG311      CG321     CG2R61     CG2R61
   65    24    25    31	 9 ;       HGA2      CG321     CG2R61     CG2R61
   65    24    25    26	 9 ;       HGA2      CG321     CG2R61     CG2R61
   66    24    25    31	 9 ;       HGA2      CG321     CG2R61     CG2R61
   66    24    25    26	 9 ;       HGA2      CG321     CG2R61     CG2R61
   26    25    31    30	 9 ;     CG2R61     CG2R61     CG2R61     CG2R66
   26    25    31    69	 9 ;     CG2R61     CG2R61     CG2R61      HGR62
   24    25    31    30	 9 ;      CG321     CG2R61     CG2R61     CG2R66
   24    25    31    69	 9 ;      CG321     CG2R61     CG2R61      HGR62
   31    25    26    27	 9 ;     CG2R61     CG2R61     CG2R61     CG2R66
   31    25    26    67	 9 ;     CG2R61     CG2R61     CG2R61      HGR62
   24    25    26    27	 9 ;      CG321     CG2R61     CG2R61     CG2R66
   24    25    26    67	 9 ;      CG321     CG2R61     CG2R61      HGR62
   25    26    27    29	 9 ;     CG2R61     CG2R61     CG2R66     CG2R61
   25    26    27    28	 9 ;     CG2R61     CG2R61     CG2R66       FGR1
   67    26    27    29	 9 ;      HGR62     CG2R61     CG2R66     CG2R61
   67    26    27    28	 9 ;      HGR62     CG2R61     CG2R66       FGR1
   28    27    29    30	 9 ;       FGR1     CG2R66     CG2R61     CG2R66
   28    27    29    68	 9 ;       FGR1     CG2R66     CG2R61      HGR62
   26    27    29    30	 9 ;     CG2R61     CG2R66     CG2R61     CG2R66
   26    27    29    68	 9 ;     CG2R61     CG2R66     CG2R61      HGR62
   27    29    30    32	 9 ;     CG2R66     CG2R61     CG2R66       FGR1
   27    29    30    31	 9 ;     CG2R66     CG2R61     CG2R66     CG2R61
   68    29    30    32	 9 ;      HGR62     CG2R61     CG2R66       FGR1
   68    29    30    31	 9 ;      HGR62     CG2R61     CG2R66     CG2R61
   32    30    31    25	 9 ;       FGR1     CG2R66     CG2R61     CG2R61
   32    30    31    69	 9 ;       FGR1     CG2R66     CG2R61      HGR62
   29    30    31    25	 9 ;     CG2R61     CG2R66     CG2R61     CG2R61
   29    30    31    69	 9 ;     CG2R61     CG2R66     CG2R61      HGR62
    1    33    34    35	 9 ;      CG311      CG311      CG314      NG3P2
    1    33    34    42	 9 ;      CG311      CG311      CG314      CG321
    1    33    34    71	 9 ;      CG311      CG311      CG314       HGA1
   46    33    34    35	 9 ;      OG311      CG311      CG314      NG3P2
   46    33    34    42	 9 ;      OG311      CG311      CG314      CG321
   46    33    34    71	 9 ;      OG311      CG311      CG314       HGA1
   70    33    34    35	 9 ;       HGA1      CG311      CG314      NG3P2
   70    33    34    42	 9 ;       HGA1      CG311      CG314      CG321
   70    33    34    71	 9 ;       HGA1      CG311      CG314       HGA1
    1    33    46    47	 9 ;      CG311      CG311      OG311       HGP1
   34    33    46    47	 9 ;      CG314      CG311      OG311       HGP1
   70    33    46    47	 9 ;       HGA1      CG311      OG311       HGP1
   33    34    35    37	 9 ;      CG311      CG314      NG3P2       HGP2
   33    34    35    38	 9 ;      CG311      CG314      NG3P2       HGP2
   33    34    35    36	 9 ;      CG311      CG314      NG3P2      CG324
   42    34    35    37	 9 ;      CG321      CG314      NG3P2       HGP2
   42    34    35    38	 9 ;      CG321      CG314      NG3P2       HGP2
   42    34    35    36	 9 ;      CG321      CG314      NG3P2      CG324
   71    34    35    37	 9 ;       HGA1      CG314      NG3P2       HGP2
   71    34    35    38	 9 ;       HGA1      CG314      NG3P2       HGP2
   71    34    35    36	 9 ;       HGA1      CG314      NG3P2      CG324
   33    34    42    40	 9 ;      CG311      CG314      CG321     CG2R61
   33    34    42    75	 9 ;      CG311      CG314      CG321       HGA2
   33    34    42    76	 9 ;      CG311      CG314      CG321       HGA2
   35    34    42    40	 9 ;      NG3P2      CG314      CG321     CG2R61
   35    34    42    75	 9 ;      NG3P2      CG314      CG321       HGA2
   35    34    42    76	 9 ;      NG3P2      CG314      CG321       HGA2
   71    34    42    40	 9 ;       HGA1      CG314      CG321     CG2R61
   71    34    42    75	 9 ;       HGA1      CG314      CG321       HGA2
   71    34    42    76	 9 ;       HGA1      CG314      CG321       HGA2
   37    35    36    39	 9 ;       HGP2      NG3P2      CG324     CG2R61
   37    35    36    72	 9 ;       HGP2      NG3P2      CG324       HGA2
   37    35    36    73	 9 ;       HGP2      NG3P2      CG324       HGA2
   38    35    36    39	 9 ;       HGP2      NG3P2      CG324     CG2R61
   38    35    36    72	 9 ;       HGP2      NG3P2      CG324       HGA2
   38    35    36    73	 9 ;       HGP2      NG3P2      CG324       HGA2
   34    35    36    39	 9 ;      CG314      NG3P2      CG324     CG2R61
   34    35    36    72	 9 ;      CG314      NG3P2      CG324       HGA2
   34    35    36    73	 9 ;      CG314      NG3P2      CG324       HGA2
   35    36    39    40	 9 ;      NG3P2      CG324     CG2R61     CG2R61
   35    36    39    41	 9 ;      NG3P2      CG324     CG2R61     CG2R61
   72    36    39    40	 9 ;       HGA2      CG324     CG2R61     CG2R61
   72    36    39    41	 9 ;       HGA2      CG324     CG2R61     CG2R61
   73    36    39    40	 9 ;       HGA2      CG324     CG2R61     CG2R61
   73    36    39    41	 9 ;       HGA2      CG324     CG2R61     CG2R61
   36    39    40    42	 9 ;      CG324     CG2R61     CG2R61      CG321
   36    39    40    43	 9 ;      CG324     CG2R61     CG2R61     CG2R61
   41    39    40    42	 9 ;     CG2R61     CG2R61     CG2R61      CG321
   41    39    40    43	 9 ;     CG2R61     CG2R61     CG2R61     CG2R61
   36    39    41    45	 9 ;      CG324     CG2R61     CG2R61     CG2R61
   36    39    41    74	 9 ;      CG324     CG2R61     CG2R61      HGR61
   40    39    41    45	 9 ;     CG2R61     CG2R61     CG2R61     CG2R61
   40    39    41    74	 9 ;     CG2R61     CG2R61     CG2R61      HGR61
   39    40    42    34	 9 ;     CG2R61     CG2R61      CG321      CG314
   39    40    42    75	 9 ;     CG2R61     CG2R61      CG321       HGA2
   39    40    42    76	 9 ;     CG2R61     CG2R61      CG321       HGA2
   43    40    42    34	 9 ;     CG2R61     CG2R61      CG321      CG314
   43    40    42    75	 9 ;     CG2R61     CG2R61      CG321       HGA2
   43    40    42    76	 9 ;     CG2R61     CG2R61      CG321       HGA2
   42    40    43    44	 9 ;      CG321     CG2R61     CG2R61     CG2R61
   42    40    43    77	 9 ;      CG321     CG2R61     CG2R61      HGR61
   39    40    43    44	 9 ;     CG2R61     CG2R61     CG2R61     CG2R61
   39    40    43    77	 9 ;     CG2R61     CG2R61     CG2R61      HGR61
   39    41    45    44	 9 ;     CG2R61     CG2R61     CG2R61     CG2R61
   39    41    45    79	 9 ;     CG2R61     CG2R61     CG2R61      HGR61
   74    41    45    44	 9 ;      HGR61     CG2R61     CG2R61     CG2R61
   74    41    45    79	 9 ;      HGR61     CG2R61     CG2R61      HGR61
   40    43    44    45	 9 ;     CG2R61     CG2R61     CG2R61     CG2R61
   40    43    44    78	 9 ;     CG2R61     CG2R61     CG2R61      HGR61
   77    43    44    45	 9 ;      HGR61     CG2R61     CG2R61     CG2R61
   77    43    44    78	 9 ;      HGR61     CG2R61     CG2R61      HGR61
   43    44    45    41	 9 ;     CG2R61     CG2R61     CG2R61     CG2R61
   43    44    45    79	 9 ;     CG2R61     CG2R61     CG2R61      HGR61
   78    44    45    41	 9 ;      HGR61     CG2R61     CG2R61     CG2R61
   78    44    45    79	 9 ;      HGR61     CG2R61     CG2R61      HGR61

[ dihedrals ]
;	ai	  aj	ak	  al funct			  c0			c1			  c2			c3
    3     6     2     4	 2
   11    10    12    51	 2
   16    18    14    17	 2

