Great Red Oystrich Makes All Chemists Sane
   80
    1LIG     C1    1  -1.830   0.670  -1.579
    1LIG     N1    2  -1.695   0.613  -1.558
    1LIG     C2    3  -1.626   0.529  -1.643
    1LIG     O1    4  -1.679   0.477  -1.741
    1LIG     H1    5  -1.645   0.645  -1.476
    1LIG     C3    6  -1.488   0.498  -1.606
    1LIG     C4    7  -1.384   0.593  -1.585
    1LIG     C5    8  -1.376   0.734  -1.598
    1LIG     C6    9  -1.267   0.525  -1.549
    1LIG     C7   10  -1.253   0.795  -1.579
    1LIG     C8   11  -1.144   0.716  -1.547
    1LIG     N2   12  -1.146   0.581  -1.528
    1LIG     HN   13  -1.063   0.528  -1.502
    1LIG     N3   14  -1.297   0.389  -1.544
    1LIG     C9   15  -1.428   0.375  -1.590
    1LIG    C10   16  -1.213   0.278  -1.518
    1LIG     O2   17  -1.217   0.185  -1.599
    1LIG     N4   18  -1.149   0.273  -1.394
    1LIG    C11   19  -1.159   0.374  -1.289
    1LIG    C12   20  -1.086   0.145  -1.356
    1LIG    C13   21  -1.180   0.038  -1.299
    1LIG    C14   22  -1.136  -0.106  -1.327
    1LIG    C15   23  -1.014  -0.111  -1.417
    1LIG    C16   24  -1.834   0.757  -1.709
    1LIG    C17   25  -1.739   0.874  -1.709
    1LIG    C18   26  -1.752   0.979  -1.618
    1LIG    C19   27  -1.669   1.091  -1.628
    1LIG     F1   28  -1.685   1.192  -1.541
    1LIG    C20   29  -1.573   1.101  -1.727
    1LIG    C21   30  -1.557   0.995  -1.814
    1LIG    C22   31  -1.637   0.881  -1.805
    1LIG     F2   32  -1.464   1.001  -1.911
    1LIG    C23   33  -1.954   0.573  -1.565
    1LIG    C24   34  -1.923   0.454  -1.467
    1LIG     N5   35  -1.882   0.326  -1.538
    1LIG    C25   36  -1.988   0.250  -1.610
    1LIG     H2   37  -1.801   0.345  -1.600
    1LIG     H3   38  -1.846   0.261  -1.466
    1LIG    C26   39  -2.122   0.251  -1.541
    1LIG    C27   40  -2.149   0.341  -1.436
    1LIG    C28   41  -2.225   0.170  -1.590
    1LIG    C29   42  -2.037   0.418  -1.371
    1LIG    C30   43  -2.280   0.356  -1.390
    1LIG    C31   44  -2.383   0.281  -1.444
    1LIG    C32   45  -2.355   0.185  -1.541
    1LIG     O3   46  -2.064   0.650  -1.515
    1LIG     H4   47  -2.147   0.627  -1.560
    1LIG     HC   48  -1.842   0.742  -1.498
    1LIG    HC1   49  -1.464   0.792  -1.621
    1LIG    HC2   50  -1.242   0.902  -1.590
    1LIG    HC3   51  -1.049   0.766  -1.535
    1LIG    HC4   52  -1.476   0.280  -1.609
    1LIG    HC5   53  -1.165   0.325  -1.192
    1LIG    HC6   54  -1.248   0.434  -1.306
    1LIG    HC7   55  -1.071   0.438  -1.292
    1LIG    HC8   56  -1.038   0.104  -1.444
    1LIG    HC9   57  -1.009   0.166  -1.282
    1LIG   HC10   58  -1.185   0.051  -1.191
    1LIG   HC11   59  -1.279   0.053  -1.340
    1LIG   HC12   60  -1.218  -0.159  -1.375
    1LIG   HC13   61  -1.113  -0.156  -1.232
    1LIG   HC14   62  -0.988  -0.214  -1.439
    1LIG   HC15   63  -0.930  -0.062  -1.367
    1LIG   HC16   64  -1.036  -0.058  -1.510
    1LIG   HC17   65  -1.809   0.693  -1.794
    1LIG   HC18   66  -1.935   0.795  -1.723
    1LIG   HC19   67  -1.826   0.973  -1.539
    1LIG   HC20   68  -1.513   1.190  -1.737
    1LIG   HC21   69  -1.620   0.798  -1.872
    1LIG   HC22   70  -1.980   0.533  -1.663
    1LIG   HC23   71  -1.838   0.484  -1.405
    1LIG   HC24   72  -1.956   0.147  -1.622
    1LIG   HC25   73  -2.001   0.294  -1.710
    1LIG   HC26   74  -2.205   0.095  -1.665
    1LIG   HC27   75  -1.997   0.358  -1.290
    1LIG   HC28   76  -2.078   0.510  -1.329
    1LIG   HC29   77  -2.301   0.428  -1.311
    1LIG   HC30   78  -2.485   0.296  -1.411
    1LIG   HC31   79  -2.435   0.122  -1.579
    1LIG    H38   80  -1.292   0.535  -1.443
   0.00000   0.00000   0.00000
