; Created by cgenff_charmm2gmx.py

[ moleculetype ]
; Name			   nrexcl
LIG				 3

[ atoms ]
;	 nr		  type	resnr residue  atom   cgnr	   charge		mass  typeB    chargeB		massB
; residue	 1 LIG rtp LIG q	qsum
     1      SG3O2      1    LIG      S      1      0.113     32.060   ;
     2      OG2P1      1    LIG     O1      2     -0.300     15.999   ;
     3      OG2P1      1    LIG     O2      3     -0.300     15.999   ;
     4      CG321      1    LIG     C1      4      0.180     12.011   ;
     5      CG311      1    LIG     C2      5     -0.145     12.011   ;
     6      CG311      1    LIG     C3      6      0.100     12.011   ;
     7      CG314      1    LIG     C4      7     -0.043     12.011   ;
     8      CG321      1    LIG     C5      8      0.224     12.011   ;
     9      CG321      1    LIG     C6      9     -0.108     12.011   ;
    10     CG2R61      1    LIG     C7     10      0.007     12.011   ;
    11     CG2R61      1    LIG     C8     11     -0.115     12.011   ;
    12     CG2R61      1    LIG     C9     12      0.066     12.011   ;
    13     CG2R61      1    LIG    C10     13      0.140     12.011   ;
    14     CG2R66      1    LIG    C11     14      0.006     12.011   ;
    15       FGR1      1    LIG     F1     15     -0.230     18.998   ;
    16     CG2R61      1    LIG    C12     16     -0.121     12.011   ;
    17      CG321      1    LIG    C13     17     -0.211     12.011   ;
    18      CG321      1    LIG    C14     18     -0.129     12.011   ;
    19      CG302      1    LIG    C15     19      0.374     12.011   ;
    20       FGA3      1    LIG     F2     20     -0.143     18.998   ;
    21       FGA3      1    LIG     F3     21     -0.143     18.998   ;
    22       FGA3      1    LIG     F4     22     -0.143     18.998   ;
    23      NG2S3      1    LIG     N1     23     -0.742     14.007   ;
    24       HGP4      1    LIG     H1     24      0.357      1.008   ;
    25       HGP4      1    LIG     H2     25      0.357      1.008   ;
    26      OG311      1    LIG     O3     26     -0.595     15.999   ;
    27       HGP1      1    LIG     H3     27      0.422      1.008   ;
    28      NG3P2      1    LIG     N2     28     -0.444     14.007   ;
    29       HGP2      1    LIG     H4     29      0.346      1.008   ;
    30       HGP2      1    LIG     H5     30      0.346      1.008   ;
    31      CG324      1    LIG    C16     31      0.178     12.011   ;
    32     CG2R61      1    LIG    C17     32      0.036     12.011   ;
    33     CG2R61      1    LIG    C18     33     -0.124     12.011   ;
    34     CG2R61      1    LIG    C19     34      0.084     12.011   ;
    35     CG2R61      1    LIG    C20     35     -0.121     12.011   ;
    36     CG2R61      1    LIG    C21     36     -0.108     12.011   ;
    37     CG2R61      1    LIG    C22     37     -0.119     12.011   ;
    38      CG301      1    LIG    C23     38     -0.018     12.011   ;
    39      CG331      1    LIG    C24     39     -0.289     12.011   ;
    40      CG331      1    LIG    C25     40     -0.289     12.011   ;
    41      CG331      1    LIG    C26     41     -0.289     12.011   ;
    42       HGA2      1    LIG    HC2     42      0.090      1.008   ;
    43       HGA2      1    LIG    HC3     43      0.090      1.008   ;
    44       HGA1      1    LIG     HC     44      0.090      1.008   ;
    45       HGA1      1    LIG    HC1     45      0.090      1.008   ;
    46       HGA1      1    LIG    HC4     46      0.109      1.008   ;
    47       HGA2      1    LIG    HC5     47      0.090      1.008   ;
    48       HGA2      1    LIG    HC6     48      0.090      1.008   ;
    49       HGA2      1    LIG    HC7     49      0.090      1.008   ;
    50       HGA2      1    LIG    HC8     50      0.090      1.008   ;
    51      HGR61      1    LIG    HC9     51      0.116      1.008   ;
    52      HGR62      1    LIG   HC10     52      0.174      1.008   ;
    53       HGA2      1    LIG   HC11     53      0.090      1.008   ;
    54       HGA2      1    LIG   HC12     54      0.090      1.008   ;
    55       HGA2      1    LIG   HC13     55      0.090      1.008   ;
    56       HGA2      1    LIG   HC14     56      0.090      1.008   ;
    57       HGA2      1    LIG   HC15     57      0.090      1.008   ;
    58       HGA2      1    LIG   HC16     58      0.090      1.008   ;
    59      HGR61      1    LIG   HC17     59      0.116      1.008   ;
    60      HGR61      1    LIG   HC18     60      0.116      1.008   ;
    61      HGR61      1    LIG   HC19     61      0.116      1.008   ;
    62      HGR61      1    LIG   HC20     62      0.116      1.008   ;
    63       HGA3      1    LIG   HC21     63      0.090      1.008   ;
    64       HGA3      1    LIG   HC22     64      0.090      1.008   ;
    65       HGA3      1    LIG   HC23     65      0.090      1.008   ;
    66       HGA3      1    LIG   HC24     66      0.090      1.008   ;
    67       HGA3      1    LIG   HC25     67      0.090      1.008   ;
    68       HGA3      1    LIG   HC26     68      0.090      1.008   ;
    69       HGA3      1    LIG   HC27     69      0.090      1.008   ;
    70       HGA3      1    LIG   HC28     70      0.090      1.008   ;
    71       HGA3      1    LIG   HC29     71      0.090      1.008   ;

[ bonds ]
;	ai	  aj funct			  c0			c1			  c2			c3
    1     4	 1 ;       SG3O2      CG321
    1     3	 1 ;       SG3O2      OG2P1
    1     2	 1 ;       SG3O2      OG2P1
    1     8	 1 ;       SG3O2      CG321
    4     5	 1 ;       CG321      CG311
    4    42	 1 ;       CG321       HGA2
    4    43	 1 ;       CG321       HGA2
    5     9	 1 ;       CG311      CG321
    5     6	 1 ;       CG311      CG311
    5    44	 1 ;       CG311       HGA1
    6    26	 1 ;       CG311      OG311
    6     7	 1 ;       CG311      CG314
    6    45	 1 ;       CG311       HGA1
    7     8	 1 ;       CG314      CG321
    7    28	 1 ;       CG314      NG3P2
    7    46	 1 ;       CG314       HGA1
    8    47	 1 ;       CG321       HGA2
    8    48	 1 ;       CG321       HGA2
    9    10	 1 ;       CG321     CG2R61
    9    49	 1 ;       CG321       HGA2
    9    50	 1 ;       CG321       HGA2
   10    11	 1 ;      CG2R61     CG2R61
   10    16	 1 ;      CG2R61     CG2R61
   11    12	 1 ;      CG2R61     CG2R61
   11    51	 1 ;      CG2R61      HGR61
   12    17	 1 ;      CG2R61      CG321
   12    13	 1 ;      CG2R61     CG2R61
   13    23	 1 ;      CG2R61      NG2S3
   13    14	 1 ;      CG2R61     CG2R66
   14    16	 1 ;      CG2R66     CG2R61
   14    15	 1 ;      CG2R66       FGR1
   16    52	 1 ;      CG2R61      HGR62
   17    18	 1 ;       CG321      CG321
   17    53	 1 ;       CG321       HGA2
   17    54	 1 ;       CG321       HGA2
   18    19	 1 ;       CG321      CG302
   18    55	 1 ;       CG321       HGA2
   18    56	 1 ;       CG321       HGA2
   19    20	 1 ;       CG302       FGA3
   19    22	 1 ;       CG302       FGA3
   19    21	 1 ;       CG302       FGA3
   23    24	 1 ;       NG2S3       HGP4
   23    25	 1 ;       NG2S3       HGP4
   26    27	 1 ;       OG311       HGP1
   28    29	 1 ;       NG3P2       HGP2
   28    30	 1 ;       NG3P2       HGP2
   28    31	 1 ;       NG3P2      CG324
   31    32	 1 ;       CG324     CG2R61
   31    57	 1 ;       CG324       HGA2
   31    58	 1 ;       CG324       HGA2
   32    37	 1 ;      CG2R61     CG2R61
   32    33	 1 ;      CG2R61     CG2R61
   33    34	 1 ;      CG2R61     CG2R61
   33    59	 1 ;      CG2R61      HGR61
   34    35	 1 ;      CG2R61     CG2R61
   34    38	 1 ;      CG2R61      CG301
   35    36	 1 ;      CG2R61     CG2R61
   35    60	 1 ;      CG2R61      HGR61
   36    37	 1 ;      CG2R61     CG2R61
   36    61	 1 ;      CG2R61      HGR61
   37    62	 1 ;      CG2R61      HGR61
   38    40	 1 ;       CG301      CG331
   38    41	 1 ;       CG301      CG331
   38    39	 1 ;       CG301      CG331
   39    69	 1 ;       CG331       HGA3
   39    70	 1 ;       CG331       HGA3
   39    71	 1 ;       CG331       HGA3
   40    66	 1 ;       CG331       HGA3
   40    67	 1 ;       CG331       HGA3
   40    68	 1 ;       CG331       HGA3
   41    63	 1 ;       CG331       HGA3
   41    64	 1 ;       CG331       HGA3
   41    65	 1 ;       CG331       HGA3

[ pairs ]
;	ai	  aj funct			  c0			c1			  c2			c3
    1     9	 1
    1     6	 1
    1    44	 1
    1    28	 1
    1    46	 1
    2     5	 1
    2    42	 1
    2    43	 1
    2     7	 1
    2    47	 1
    2    48	 1
    3     5	 1
    3    42	 1
    3    43	 1
    3     7	 1
    3    47	 1
    3    48	 1
    4     7	 1
    4    47	 1
    4    48	 1
    4    10	 1
    4    49	 1
    4    50	 1
    4    26	 1
    4    45	 1
    5     8	 1
    5    27	 1
    5    28	 1
    5    46	 1
    5    11	 1
    5    16	 1
    6    42	 1
    6    43	 1
    6    10	 1
    6    49	 1
    6    50	 1
    6    47	 1
    6    48	 1
    6    29	 1
    6    30	 1
    6    31	 1
    7     9	 1
    7    44	 1
    7    27	 1
    7    32	 1
    7    57	 1
    7    58	 1
    8    42	 1
    8    43	 1
    8    26	 1
    8    45	 1
    8    29	 1
    8    30	 1
    8    31	 1
    9    42	 1
    9    43	 1
    9    26	 1
    9    45	 1
    9    12	 1
    9    51	 1
    9    14	 1
    9    52	 1
   10    44	 1
   10    17	 1
   10    13	 1
   10    15	 1
   11    49	 1
   11    50	 1
   11    14	 1
   11    52	 1
   11    18	 1
   11    53	 1
   11    54	 1
   11    23	 1
   12    16	 1
   12    24	 1
   12    25	 1
   12    15	 1
   12    19	 1
   12    55	 1
   12    56	 1
   13    51	 1
   13    18	 1
   13    53	 1
   13    54	 1
   13    52	 1
   14    17	 1
   14    24	 1
   14    25	 1
   15    23	 1
   15    52	 1
   16    49	 1
   16    50	 1
   16    51	 1
   16    23	 1
   17    51	 1
   17    23	 1
   17    20	 1
   17    22	 1
   17    21	 1
   19    53	 1
   19    54	 1
   20    55	 1
   20    56	 1
   21    55	 1
   21    56	 1
   22    55	 1
   22    56	 1
   26    44	 1
   26    28	 1
   26    46	 1
   27    45	 1
   28    45	 1
   28    47	 1
   28    48	 1
   28    37	 1
   28    33	 1
   29    46	 1
   29    32	 1
   29    57	 1
   29    58	 1
   30    46	 1
   30    32	 1
   30    57	 1
   30    58	 1
   31    46	 1
   31    36	 1
   31    62	 1
   31    34	 1
   31    59	 1
   32    35	 1
   32    38	 1
   32    61	 1
   33    57	 1
   33    58	 1
   33    36	 1
   33    62	 1
   33    60	 1
   33    40	 1
   33    41	 1
   33    39	 1
   34    37	 1
   34    61	 1
   34    66	 1
   34    67	 1
   34    68	 1
   34    63	 1
   34    64	 1
   34    65	 1
   34    69	 1
   34    70	 1
   34    71	 1
   35    59	 1
   35    40	 1
   35    41	 1
   35    39	 1
   35    62	 1
   36    38	 1
   37    57	 1
   37    58	 1
   37    59	 1
   37    60	 1
   38    59	 1
   38    60	 1
   39    66	 1
   39    67	 1
   39    68	 1
   39    63	 1
   39    64	 1
   39    65	 1
   40    63	 1
   40    64	 1
   40    65	 1
   40    69	 1
   40    70	 1
   40    71	 1
   41    66	 1
   41    67	 1
   41    68	 1
   41    69	 1
   41    70	 1
   41    71	 1
   42    44	 1
   43    44	 1
   44    49	 1
   44    50	 1
   44    45	 1
   45    46	 1
   46    47	 1
   46    48	 1
   53    55	 1
   53    56	 1
   54    55	 1
   54    56	 1
   60    61	 1
   61    62	 1

[ angles ]
;	ai	  aj	ak funct			c0			  c1			c2			  c3
    4     1     3	5 ;      CG321      SG3O2      OG2P1
    4     1     2	5 ;      CG321      SG3O2      OG2P1
    4     1     8	5 ;      CG321      SG3O2      CG321
    3     1     2	5 ;      OG2P1      SG3O2      OG2P1
    3     1     8	5 ;      OG2P1      SG3O2      CG321
    2     1     8	5 ;      OG2P1      SG3O2      CG321
    5     4     1	5 ;      CG311      CG321      SG3O2
    5     4    42	5 ;      CG311      CG321       HGA2
    5     4    43	5 ;      CG311      CG321       HGA2
    1     4    42	5 ;      SG3O2      CG321       HGA2
    1     4    43	5 ;      SG3O2      CG321       HGA2
   42     4    43	5 ;       HGA2      CG321       HGA2
    9     5     4	5 ;      CG321      CG311      CG321
    9     5     6	5 ;      CG321      CG311      CG311
    9     5    44	5 ;      CG321      CG311       HGA1
    4     5     6	5 ;      CG321      CG311      CG311
    4     5    44	5 ;      CG321      CG311       HGA1
    6     5    44	5 ;      CG311      CG311       HGA1
    5     6    26	5 ;      CG311      CG311      OG311
    5     6     7	5 ;      CG311      CG311      CG314
    5     6    45	5 ;      CG311      CG311       HGA1
   26     6     7	5 ;      OG311      CG311      CG314
   26     6    45	5 ;      OG311      CG311       HGA1
    7     6    45	5 ;      CG314      CG311       HGA1
    6     7     8	5 ;      CG311      CG314      CG321
    6     7    28	5 ;      CG311      CG314      NG3P2
    6     7    46	5 ;      CG311      CG314       HGA1
    8     7    28	5 ;      CG321      CG314      NG3P2
    8     7    46	5 ;      CG321      CG314       HGA1
   28     7    46	5 ;      NG3P2      CG314       HGA1
    1     8     7	5 ;      SG3O2      CG321      CG314
    1     8    47	5 ;      SG3O2      CG321       HGA2
    1     8    48	5 ;      SG3O2      CG321       HGA2
    7     8    47	5 ;      CG314      CG321       HGA2
    7     8    48	5 ;      CG314      CG321       HGA2
   47     8    48	5 ;       HGA2      CG321       HGA2
   10     9     5	5 ;     CG2R61      CG321      CG311
   10     9    49	5 ;     CG2R61      CG321       HGA2
   10     9    50	5 ;     CG2R61      CG321       HGA2
    5     9    49	5 ;      CG311      CG321       HGA2
    5     9    50	5 ;      CG311      CG321       HGA2
   49     9    50	5 ;       HGA2      CG321       HGA2
   11    10    16	5 ;     CG2R61     CG2R61     CG2R61
   11    10     9	5 ;     CG2R61     CG2R61      CG321
   16    10     9	5 ;     CG2R61     CG2R61      CG321
   12    11    10	5 ;     CG2R61     CG2R61     CG2R61
   12    11    51	5 ;     CG2R61     CG2R61      HGR61
   10    11    51	5 ;     CG2R61     CG2R61      HGR61
   17    12    11	5 ;      CG321     CG2R61     CG2R61
   17    12    13	5 ;      CG321     CG2R61     CG2R61
   11    12    13	5 ;     CG2R61     CG2R61     CG2R61
   12    13    23	5 ;     CG2R61     CG2R61      NG2S3
   12    13    14	5 ;     CG2R61     CG2R61     CG2R66
   23    13    14	5 ;      NG2S3     CG2R61     CG2R66
   13    14    16	5 ;     CG2R61     CG2R66     CG2R61
   13    14    15	5 ;     CG2R61     CG2R66       FGR1
   16    14    15	5 ;     CG2R61     CG2R66       FGR1
   10    16    14	5 ;     CG2R61     CG2R61     CG2R66
   10    16    52	5 ;     CG2R61     CG2R61      HGR62
   14    16    52	5 ;     CG2R66     CG2R61      HGR62
   12    17    18	5 ;     CG2R61      CG321      CG321
   12    17    53	5 ;     CG2R61      CG321       HGA2
   12    17    54	5 ;     CG2R61      CG321       HGA2
   18    17    53	5 ;      CG321      CG321       HGA2
   18    17    54	5 ;      CG321      CG321       HGA2
   53    17    54	5 ;       HGA2      CG321       HGA2
   17    18    19	5 ;      CG321      CG321      CG302
   17    18    55	5 ;      CG321      CG321       HGA2
   17    18    56	5 ;      CG321      CG321       HGA2
   19    18    55	5 ;      CG302      CG321       HGA2
   19    18    56	5 ;      CG302      CG321       HGA2
   55    18    56	5 ;       HGA2      CG321       HGA2
   20    19    18	5 ;       FGA3      CG302      CG321
   20    19    22	5 ;       FGA3      CG302       FGA3
   20    19    21	5 ;       FGA3      CG302       FGA3
   18    19    22	5 ;      CG321      CG302       FGA3
   18    19    21	5 ;      CG321      CG302       FGA3
   22    19    21	5 ;       FGA3      CG302       FGA3
   24    23    13	5 ;       HGP4      NG2S3     CG2R61
   24    23    25	5 ;       HGP4      NG2S3       HGP4
   13    23    25	5 ;     CG2R61      NG2S3       HGP4
   27    26     6	5 ;       HGP1      OG311      CG311
    7    28    29	5 ;      CG314      NG3P2       HGP2
    7    28    30	5 ;      CG314      NG3P2       HGP2
    7    28    31	5 ;      CG314      NG3P2      CG324
   29    28    30	5 ;       HGP2      NG3P2       HGP2
   29    28    31	5 ;       HGP2      NG3P2      CG324
   30    28    31	5 ;       HGP2      NG3P2      CG324
   28    31    32	5 ;      NG3P2      CG324     CG2R61
   28    31    57	5 ;      NG3P2      CG324       HGA2
   28    31    58	5 ;      NG3P2      CG324       HGA2
   32    31    57	5 ;     CG2R61      CG324       HGA2
   32    31    58	5 ;     CG2R61      CG324       HGA2
   57    31    58	5 ;       HGA2      CG324       HGA2
   31    32    37	5 ;      CG324     CG2R61     CG2R61
   31    32    33	5 ;      CG324     CG2R61     CG2R61
   37    32    33	5 ;     CG2R61     CG2R61     CG2R61
   32    33    34	5 ;     CG2R61     CG2R61     CG2R61
   32    33    59	5 ;     CG2R61     CG2R61      HGR61
   34    33    59	5 ;     CG2R61     CG2R61      HGR61
   33    34    35	5 ;     CG2R61     CG2R61     CG2R61
   33    34    38	5 ;     CG2R61     CG2R61      CG301
   35    34    38	5 ;     CG2R61     CG2R61      CG301
   36    35    34	5 ;     CG2R61     CG2R61     CG2R61
   36    35    60	5 ;     CG2R61     CG2R61      HGR61
   34    35    60	5 ;     CG2R61     CG2R61      HGR61
   37    36    35	5 ;     CG2R61     CG2R61     CG2R61
   37    36    61	5 ;     CG2R61     CG2R61      HGR61
   35    36    61	5 ;     CG2R61     CG2R61      HGR61
   32    37    36	5 ;     CG2R61     CG2R61     CG2R61
   32    37    62	5 ;     CG2R61     CG2R61      HGR61
   36    37    62	5 ;     CG2R61     CG2R61      HGR61
   34    38    40	5 ;     CG2R61      CG301      CG331
   34    38    41	5 ;     CG2R61      CG301      CG331
   34    38    39	5 ;     CG2R61      CG301      CG331
   40    38    41	5 ;      CG331      CG301      CG331
   40    38    39	5 ;      CG331      CG301      CG331
   41    38    39	5 ;      CG331      CG301      CG331
   38    39    69	5 ;      CG301      CG331       HGA3
   38    39    70	5 ;      CG301      CG331       HGA3
   38    39    71	5 ;      CG301      CG331       HGA3
   69    39    70	5 ;       HGA3      CG331       HGA3
   69    39    71	5 ;       HGA3      CG331       HGA3
   70    39    71	5 ;       HGA3      CG331       HGA3
   38    40    66	5 ;      CG301      CG331       HGA3
   38    40    67	5 ;      CG301      CG331       HGA3
   38    40    68	5 ;      CG301      CG331       HGA3
   66    40    67	5 ;       HGA3      CG331       HGA3
   66    40    68	5 ;       HGA3      CG331       HGA3
   67    40    68	5 ;       HGA3      CG331       HGA3
   38    41    63	5 ;      CG301      CG331       HGA3
   38    41    64	5 ;      CG301      CG331       HGA3
   38    41    65	5 ;      CG301      CG331       HGA3
   63    41    64	5 ;       HGA3      CG331       HGA3
   63    41    65	5 ;       HGA3      CG331       HGA3
   64    41    65	5 ;       HGA3      CG331       HGA3

[ dihedrals ]
;	ai	  aj	ak	  al funct			  c0			c1			  c2			c3			  c4			c5
    3     1     4     5	 9 ;      OG2P1      SG3O2      CG321      CG311
    3     1     4    42	 9 ;      OG2P1      SG3O2      CG321       HGA2
    3     1     4    43	 9 ;      OG2P1      SG3O2      CG321       HGA2
    2     1     4     5	 9 ;      OG2P1      SG3O2      CG321      CG311
    2     1     4    42	 9 ;      OG2P1      SG3O2      CG321       HGA2
    2     1     4    43	 9 ;      OG2P1      SG3O2      CG321       HGA2
    8     1     4     5	 9 ;      CG321      SG3O2      CG321      CG311
    8     1     4    42	 9 ;      CG321      SG3O2      CG321       HGA2
    8     1     4    43	 9 ;      CG321      SG3O2      CG321       HGA2
    4     1     8     7	 9 ;      CG321      SG3O2      CG321      CG314
    4     1     8    47	 9 ;      CG321      SG3O2      CG321       HGA2
    4     1     8    48	 9 ;      CG321      SG3O2      CG321       HGA2
    3     1     8     7	 9 ;      OG2P1      SG3O2      CG321      CG314
    3     1     8    47	 9 ;      OG2P1      SG3O2      CG321       HGA2
    3     1     8    48	 9 ;      OG2P1      SG3O2      CG321       HGA2
    2     1     8     7	 9 ;      OG2P1      SG3O2      CG321      CG314
    2     1     8    47	 9 ;      OG2P1      SG3O2      CG321       HGA2
    2     1     8    48	 9 ;      OG2P1      SG3O2      CG321       HGA2
    1     4     5     9	 9 ;      SG3O2      CG321      CG311      CG321
    1     4     5     6	 9 ;      SG3O2      CG321      CG311      CG311
    1     4     5    44	 9 ;      SG3O2      CG321      CG311       HGA1
   42     4     5     9	 9 ;       HGA2      CG321      CG311      CG321
   42     4     5     6	 9 ;       HGA2      CG321      CG311      CG311
   42     4     5    44	 9 ;       HGA2      CG321      CG311       HGA1
   43     4     5     9	 9 ;       HGA2      CG321      CG311      CG321
   43     4     5     6	 9 ;       HGA2      CG321      CG311      CG311
   43     4     5    44	 9 ;       HGA2      CG321      CG311       HGA1
    4     5     9    10	 9 ;      CG321      CG311      CG321     CG2R61
    4     5     9    49	 9 ;      CG321      CG311      CG321       HGA2
    4     5     9    50	 9 ;      CG321      CG311      CG321       HGA2
    6     5     9    10	 9 ;      CG311      CG311      CG321     CG2R61
    6     5     9    49	 9 ;      CG311      CG311      CG321       HGA2
    6     5     9    50	 9 ;      CG311      CG311      CG321       HGA2
   44     5     9    10	 9 ;       HGA1      CG311      CG321     CG2R61
   44     5     9    49	 9 ;       HGA1      CG311      CG321       HGA2
   44     5     9    50	 9 ;       HGA1      CG311      CG321       HGA2
    9     5     6    26	 9 ;      CG321      CG311      CG311      OG311
    9     5     6     7	 9 ;      CG321      CG311      CG311      CG314
    9     5     6    45	 9 ;      CG321      CG311      CG311       HGA1
    4     5     6    26	 9 ;      CG321      CG311      CG311      OG311
    4     5     6     7	 9 ;      CG321      CG311      CG311      CG314
    4     5     6    45	 9 ;      CG321      CG311      CG311       HGA1
   44     5     6    26	 9 ;       HGA1      CG311      CG311      OG311
   44     5     6     7	 9 ;       HGA1      CG311      CG311      CG314
   44     5     6    45	 9 ;       HGA1      CG311      CG311       HGA1
    5     6    26    27	 9 ;      CG311      CG311      OG311       HGP1
    7     6    26    27	 9 ;      CG314      CG311      OG311       HGP1
   45     6    26    27	 9 ;       HGA1      CG311      OG311       HGP1
    5     6     7     8	 9 ;      CG311      CG311      CG314      CG321
    5     6     7    28	 9 ;      CG311      CG311      CG314      NG3P2
    5     6     7    46	 9 ;      CG311      CG311      CG314       HGA1
   26     6     7     8	 9 ;      OG311      CG311      CG314      CG321
   26     6     7    28	 9 ;      OG311      CG311      CG314      NG3P2
   26     6     7    46	 9 ;      OG311      CG311      CG314       HGA1
   45     6     7     8	 9 ;       HGA1      CG311      CG314      CG321
   45     6     7    28	 9 ;       HGA1      CG311      CG314      NG3P2
   45     6     7    46	 9 ;       HGA1      CG311      CG314       HGA1
    6     7     8     1	 9 ;      CG311      CG314      CG321      SG3O2
    6     7     8    47	 9 ;      CG311      CG314      CG321       HGA2
    6     7     8    48	 9 ;      CG311      CG314      CG321       HGA2
   28     7     8     1	 9 ;      NG3P2      CG314      CG321      SG3O2
   28     7     8    47	 9 ;      NG3P2      CG314      CG321       HGA2
   28     7     8    48	 9 ;      NG3P2      CG314      CG321       HGA2
   46     7     8     1	 9 ;       HGA1      CG314      CG321      SG3O2
   46     7     8    47	 9 ;       HGA1      CG314      CG321       HGA2
   46     7     8    48	 9 ;       HGA1      CG314      CG321       HGA2
    6     7    28    29	 9 ;      CG311      CG314      NG3P2       HGP2
    6     7    28    30	 9 ;      CG311      CG314      NG3P2       HGP2
    6     7    28    31	 9 ;      CG311      CG314      NG3P2      CG324
    8     7    28    29	 9 ;      CG321      CG314      NG3P2       HGP2
    8     7    28    30	 9 ;      CG321      CG314      NG3P2       HGP2
    8     7    28    31	 9 ;      CG321      CG314      NG3P2      CG324
   46     7    28    29	 9 ;       HGA1      CG314      NG3P2       HGP2
   46     7    28    30	 9 ;       HGA1      CG314      NG3P2       HGP2
   46     7    28    31	 9 ;       HGA1      CG314      NG3P2      CG324
    5     9    10    11	 9 ;      CG311      CG321     CG2R61     CG2R61
    5     9    10    16	 9 ;      CG311      CG321     CG2R61     CG2R61
   49     9    10    11	 9 ;       HGA2      CG321     CG2R61     CG2R61
   49     9    10    16	 9 ;       HGA2      CG321     CG2R61     CG2R61
   50     9    10    11	 9 ;       HGA2      CG321     CG2R61     CG2R61
   50     9    10    16	 9 ;       HGA2      CG321     CG2R61     CG2R61
   16    10    11    12	 9 ;     CG2R61     CG2R61     CG2R61     CG2R61
   16    10    11    51	 9 ;     CG2R61     CG2R61     CG2R61      HGR61
    9    10    11    12	 9 ;      CG321     CG2R61     CG2R61     CG2R61
    9    10    11    51	 9 ;      CG321     CG2R61     CG2R61      HGR61
   11    10    16    14	 9 ;     CG2R61     CG2R61     CG2R61     CG2R66
   11    10    16    52	 9 ;     CG2R61     CG2R61     CG2R61      HGR62
    9    10    16    14	 9 ;      CG321     CG2R61     CG2R61     CG2R66
    9    10    16    52	 9 ;      CG321     CG2R61     CG2R61      HGR62
   10    11    12    17	 9 ;     CG2R61     CG2R61     CG2R61      CG321
   10    11    12    13	 9 ;     CG2R61     CG2R61     CG2R61     CG2R61
   51    11    12    17	 9 ;      HGR61     CG2R61     CG2R61      CG321
   51    11    12    13	 9 ;      HGR61     CG2R61     CG2R61     CG2R61
   11    12    17    18	 9 ;     CG2R61     CG2R61      CG321      CG321
   11    12    17    53	 9 ;     CG2R61     CG2R61      CG321       HGA2
   11    12    17    54	 9 ;     CG2R61     CG2R61      CG321       HGA2
   13    12    17    18	 9 ;     CG2R61     CG2R61      CG321      CG321
   13    12    17    53	 9 ;     CG2R61     CG2R61      CG321       HGA2
   13    12    17    54	 9 ;     CG2R61     CG2R61      CG321       HGA2
   17    12    13    23	 9 ;      CG321     CG2R61     CG2R61      NG2S3
   17    12    13    14	 9 ;      CG321     CG2R61     CG2R61     CG2R66
   11    12    13    23	 9 ;     CG2R61     CG2R61     CG2R61      NG2S3
   11    12    13    14	 9 ;     CG2R61     CG2R61     CG2R61     CG2R66
   12    13    23    24	 9 ;     CG2R61     CG2R61      NG2S3       HGP4
   12    13    23    25	 9 ;     CG2R61     CG2R61      NG2S3       HGP4
   14    13    23    24	 9 ;     CG2R66     CG2R61      NG2S3       HGP4
   14    13    23    25	 9 ;     CG2R66     CG2R61      NG2S3       HGP4
   12    13    14    16	 9 ;     CG2R61     CG2R61     CG2R66     CG2R61
   12    13    14    15	 9 ;     CG2R61     CG2R61     CG2R66       FGR1
   23    13    14    16	 9 ;      NG2S3     CG2R61     CG2R66     CG2R61
   23    13    14    15	 9 ;      NG2S3     CG2R61     CG2R66       FGR1
   13    14    16    10	 9 ;     CG2R61     CG2R66     CG2R61     CG2R61
   13    14    16    52	 9 ;     CG2R61     CG2R66     CG2R61      HGR62
   15    14    16    10	 9 ;       FGR1     CG2R66     CG2R61     CG2R61
   15    14    16    52	 9 ;       FGR1     CG2R66     CG2R61      HGR62
   12    17    18    19	 9 ;     CG2R61      CG321      CG321      CG302
   12    17    18    55	 9 ;     CG2R61      CG321      CG321       HGA2
   12    17    18    56	 9 ;     CG2R61      CG321      CG321       HGA2
   53    17    18    19	 9 ;       HGA2      CG321      CG321      CG302
   53    17    18    55	 9 ;       HGA2      CG321      CG321       HGA2
   53    17    18    56	 9 ;       HGA2      CG321      CG321       HGA2
   54    17    18    19	 9 ;       HGA2      CG321      CG321      CG302
   54    17    18    55	 9 ;       HGA2      CG321      CG321       HGA2
   54    17    18    56	 9 ;       HGA2      CG321      CG321       HGA2
   17    18    19    20	 9 ;      CG321      CG321      CG302       FGA3
   17    18    19    22	 9 ;      CG321      CG321      CG302       FGA3
   17    18    19    21	 9 ;      CG321      CG321      CG302       FGA3
   55    18    19    20	 9 ;       HGA2      CG321      CG302       FGA3
   55    18    19    22	 9 ;       HGA2      CG321      CG302       FGA3
   55    18    19    21	 9 ;       HGA2      CG321      CG302       FGA3
   56    18    19    20	 9 ;       HGA2      CG321      CG302       FGA3
   56    18    19    22	 9 ;       HGA2      CG321      CG302       FGA3
   56    18    19    21	 9 ;       HGA2      CG321      CG302       FGA3
    7    28    31    32	 9 ;      CG314      NG3P2      CG324     CG2R61
    7    28    31    57	 9 ;      CG314      NG3P2      CG324       HGA2
    7    28    31    58	 9 ;      CG314      NG3P2      CG324       HGA2
   29    28    31    32	 9 ;       HGP2      NG3P2      CG324     CG2R61
   29    28    31    57	 9 ;       HGP2      NG3P2      CG324       HGA2
   29    28    31    58	 9 ;       HGP2      NG3P2      CG324       HGA2
   30    28    31    32	 9 ;       HGP2      NG3P2      CG324     CG2R61
   30    28    31    57	 9 ;       HGP2      NG3P2      CG324       HGA2
   30    28    31    58	 9 ;       HGP2      NG3P2      CG324       HGA2
   28    31    32    37	 9 ;      NG3P2      CG324     CG2R61     CG2R61
   28    31    32    33	 9 ;      NG3P2      CG324     CG2R61     CG2R61
   57    31    32    37	 9 ;       HGA2      CG324     CG2R61     CG2R61
   57    31    32    33	 9 ;       HGA2      CG324     CG2R61     CG2R61
   58    31    32    37	 9 ;       HGA2      CG324     CG2R61     CG2R61
   58    31    32    33	 9 ;       HGA2      CG324     CG2R61     CG2R61
   31    32    37    36	 9 ;      CG324     CG2R61     CG2R61     CG2R61
   31    32    37    62	 9 ;      CG324     CG2R61     CG2R61      HGR61
   33    32    37    36	 9 ;     CG2R61     CG2R61     CG2R61     CG2R61
   33    32    37    62	 9 ;     CG2R61     CG2R61     CG2R61      HGR61
   31    32    33    34	 9 ;      CG324     CG2R61     CG2R61     CG2R61
   31    32    33    59	 9 ;      CG324     CG2R61     CG2R61      HGR61
   37    32    33    34	 9 ;     CG2R61     CG2R61     CG2R61     CG2R61
   37    32    33    59	 9 ;     CG2R61     CG2R61     CG2R61      HGR61
   32    33    34    35	 9 ;     CG2R61     CG2R61     CG2R61     CG2R61
   32    33    34    38	 9 ;     CG2R61     CG2R61     CG2R61      CG301
   59    33    34    35	 9 ;      HGR61     CG2R61     CG2R61     CG2R61
   59    33    34    38	 9 ;      HGR61     CG2R61     CG2R61      CG301
   33    34    35    36	 9 ;     CG2R61     CG2R61     CG2R61     CG2R61
   33    34    35    60	 9 ;     CG2R61     CG2R61     CG2R61      HGR61
   38    34    35    36	 9 ;      CG301     CG2R61     CG2R61     CG2R61
   38    34    35    60	 9 ;      CG301     CG2R61     CG2R61      HGR61
   33    34    38    40	 9 ;     CG2R61     CG2R61      CG301      CG331
   33    34    38    41	 9 ;     CG2R61     CG2R61      CG301      CG331
   33    34    38    39	 9 ;     CG2R61     CG2R61      CG301      CG331
   35    34    38    40	 9 ;     CG2R61     CG2R61      CG301      CG331
   35    34    38    41	 9 ;     CG2R61     CG2R61      CG301      CG331
   35    34    38    39	 9 ;     CG2R61     CG2R61      CG301      CG331
   34    35    36    37	 9 ;     CG2R61     CG2R61     CG2R61     CG2R61
   34    35    36    61	 9 ;     CG2R61     CG2R61     CG2R61      HGR61
   60    35    36    37	 9 ;      HGR61     CG2R61     CG2R61     CG2R61
   60    35    36    61	 9 ;      HGR61     CG2R61     CG2R61      HGR61
   35    36    37    32	 9 ;     CG2R61     CG2R61     CG2R61     CG2R61
   35    36    37    62	 9 ;     CG2R61     CG2R61     CG2R61      HGR61
   61    36    37    32	 9 ;      HGR61     CG2R61     CG2R61     CG2R61
   61    36    37    62	 9 ;      HGR61     CG2R61     CG2R61      HGR61
   34    38    40    66	 9 ;     CG2R61      CG301      CG331       HGA3
   34    38    40    67	 9 ;     CG2R61      CG301      CG331       HGA3
   34    38    40    68	 9 ;     CG2R61      CG301      CG331       HGA3
   41    38    40    66	 9 ;      CG331      CG301      CG331       HGA3
   41    38    40    67	 9 ;      CG331      CG301      CG331       HGA3
   41    38    40    68	 9 ;      CG331      CG301      CG331       HGA3
   39    38    40    66	 9 ;      CG331      CG301      CG331       HGA3
   39    38    40    67	 9 ;      CG331      CG301      CG331       HGA3
   39    38    40    68	 9 ;      CG331      CG301      CG331       HGA3
   34    38    41    63	 9 ;     CG2R61      CG301      CG331       HGA3
   34    38    41    64	 9 ;     CG2R61      CG301      CG331       HGA3
   34    38    41    65	 9 ;     CG2R61      CG301      CG331       HGA3
   40    38    41    63	 9 ;      CG331      CG301      CG331       HGA3
   40    38    41    64	 9 ;      CG331      CG301      CG331       HGA3
   40    38    41    65	 9 ;      CG331      CG301      CG331       HGA3
   39    38    41    63	 9 ;      CG331      CG301      CG331       HGA3
   39    38    41    64	 9 ;      CG331      CG301      CG331       HGA3
   39    38    41    65	 9 ;      CG331      CG301      CG331       HGA3
   34    38    39    69	 9 ;     CG2R61      CG301      CG331       HGA3
   34    38    39    70	 9 ;     CG2R61      CG301      CG331       HGA3
   34    38    39    71	 9 ;     CG2R61      CG301      CG331       HGA3
   40    38    39    69	 9 ;      CG331      CG301      CG331       HGA3
   40    38    39    70	 9 ;      CG331      CG301      CG331       HGA3
   40    38    39    71	 9 ;      CG331      CG301      CG331       HGA3
   41    38    39    69	 9 ;      CG331      CG301      CG331       HGA3
   41    38    39    70	 9 ;      CG331      CG301      CG331       HGA3
   41    38    39    71	 9 ;      CG331      CG301      CG331       HGA3

[ dihedrals ]
;	ai	  aj	ak	  al funct			  c0			c1			  c2			c3
   23    25    24    13	 2

