Gromacs Runs On Most of All Computer Systems
   71
    1LIG      S    1  -1.730   0.788  -1.593
    1LIG     O1    2  -1.648   0.848  -1.490
    1LIG     O2    3  -1.809   0.868  -1.684
    1LIG     C1    4  -1.632   0.673  -1.688
    1LIG     C2    5  -1.570   0.565  -1.598
    1LIG     C3    6  -1.678   0.486  -1.521
    1LIG     C4    7  -1.763   0.578  -1.427
    1LIG     C5    8  -1.841   0.681  -1.508
    1LIG     C6    9  -1.475   0.472  -1.679
    1LIG     C7   10  -1.355   0.434  -1.595
    1LIG     C8   11  -1.316   0.299  -1.585
    1LIG     C9   12  -1.233   0.254  -1.481
    1LIG    C10   13  -1.177   0.348  -1.393
    1LIG    C11   14  -1.210   0.483  -1.410
    1LIG     F1   15  -1.161   0.573  -1.324
    1LIG    C12   16  -1.297   0.527  -1.510
    1LIG    C13   17  -1.219   0.104  -1.462
    1LIG    C14   18  -1.318   0.040  -1.364
    1LIG    C15   19  -1.255  -0.022  -1.241
    1LIG     F2   20  -1.121  -0.035  -1.254
    1LIG     F3   21  -1.277   0.056  -1.133
    1LIG     F4   22  -1.306  -0.144  -1.215
    1LIG     N1   23  -1.110   0.307  -1.276
    1LIG     H1   24  -1.077   0.211  -1.282
    1LIG     H2   25  -1.159   0.326  -1.189
    1LIG     O3   26  -1.617   0.383  -1.444
    1LIG     H3   27  -1.519   0.393  -1.444
    1LIG     N2   28  -1.863   0.499  -1.344
    1LIG     H4   29  -1.896   0.418  -1.400
    1LIG     H5   30  -1.819   0.458  -1.261
    1LIG    C16   31  -1.988   0.568  -1.298
    1LIG    C17   32  -2.107   0.477  -1.315
    1LIG    C18   33  -2.132   0.374  -1.223
    1LIG    C19   34  -2.249   0.296  -1.231
    1LIG    C20   35  -2.336   0.320  -1.338
    1LIG    C21   36  -2.311   0.421  -1.431
    1LIG    C22   37  -2.198   0.501  -1.419
    1LIG    C23   38  -2.282   0.196  -1.119
    1LIG    C24   39  -2.435   0.194  -1.100
    1LIG    C25   40  -2.238   0.051  -1.150
    1LIG    C26   41  -2.214   0.236  -0.987
    1LIG    HC2   42  -1.696   0.626  -1.762
    1LIG    HC3   43  -1.552   0.728  -1.738
    1LIG     HC   44  -1.509   0.616  -1.524
    1LIG    HC1   45  -1.745   0.440  -1.594
    1LIG    HC4   46  -1.696   0.631  -1.360
    1LIG    HC5   47  -1.904   0.629  -1.581
    1LIG    HC6   48  -1.904   0.739  -1.441
    1LIG    HC7   49  -1.441   0.524  -1.768
    1LIG    HC8   50  -1.529   0.381  -1.708
    1LIG    HC9   51  -1.350   0.229  -1.660
    1LIG   HC10   52  -1.318   0.632  -1.521
    1LIG   HC11   53  -1.231   0.057  -1.559
    1LIG   HC12   54  -1.118   0.084  -1.426
    1LIG   HC13   55  -1.373  -0.038  -1.418
    1LIG   HC14   56  -1.390   0.116  -1.332
    1LIG   HC15   57  -1.978   0.595  -1.193
    1LIG   HC16   58  -2.003   0.658  -1.358
    1LIG   HC17   59  -2.060   0.354  -1.145
    1LIG   HC18   60  -2.425   0.260  -1.349
    1LIG   HC19   61  -2.380   0.438  -1.513
    1LIG   HC20   62  -2.180   0.581  -1.489
    1LIG   HC21   63  -2.254   0.176  -0.905
    1LIG   HC22   64  -2.107   0.219  -0.994
    1LIG   HC23   65  -2.233   0.341  -0.967
    1LIG   HC24   66  -2.130   0.047  -1.164
    1LIG   HC25   67  -2.266  -0.014  -1.067
    1LIG   HC26   68  -2.287   0.017  -1.241
    1LIG   HC27   69  -2.460   0.143  -1.007
    1LIG   HC28   70  -2.473   0.296  -1.097
    1LIG   HC29   71  -2.481   0.141  -1.184
   0.00000   0.00000   0.00000
