Good ROcking Metal Altar for Chronical Sinners
   46
    1LIG     C1    1  -1.239   0.373  -1.526
    1LIG     N1    2  -1.224   0.491  -1.432
    1LIG     HN    3  -1.232   0.490  -1.330
    1LIG     C2    4  -1.201   0.594  -1.506
    1LIG     N2    5  -1.190   0.572  -1.638
    1LIG     C3    6  -1.189   0.670  -1.744
    1LIG     C4    7  -1.198   0.437  -1.661
    1LIG     O1    8  -1.184   0.384  -1.770
    1LIG     C5    9  -1.150   0.255  -1.480
    1LIG     C6   10  -1.152   0.216  -1.345
    1LIG     C7   11  -1.097   0.094  -1.304
    1LIG     C8   12  -1.036   0.010  -1.397
    1LIG     C9   13  -1.027   0.050  -1.530
    1LIG    C10   14  -1.083   0.172  -1.572
    1LIG    C11   15  -1.386   0.326  -1.533
    1LIG    C12   16  -1.480   0.382  -1.446
    1LIG    C13   17  -1.614   0.344  -1.449
    1LIG    C14   18  -1.659   0.250  -1.541
    1LIG    C15   19  -1.568   0.194  -1.630
    1LIG    C16   20  -1.432   0.232  -1.627
    1LIG     O2   21  -1.790   0.206  -1.547
    1LIG    C17   22  -1.877   0.272  -1.454
    1LIG    C18   23  -1.935   0.176  -1.352
    1LIG      F   24  -1.881   0.206  -1.230
    1LIG     N3   25  -1.184   0.717  -1.454
    1LIG     H1   26  -1.086   0.744  -1.450
    1LIG     H2   27  -1.243   0.791  -1.492
    1LIG    HN2   28  -1.125   0.474  -1.424
    1LIG     HC   29  -1.308   0.611  -1.517
    1LIG    HC1   30  -1.179   0.620  -1.840
    1LIG    HC2   31  -1.281   0.727  -1.742
    1LIG    HC3   32  -1.104   0.738  -1.729
    1LIG    HC4   33  -1.196   0.281  -1.271
    1LIG    HC5   34  -1.101   0.065  -1.200
    1LIG    HC6   35  -0.997  -0.086  -1.367
    1LIG    HC7   36  -0.976  -0.013  -1.602
    1LIG    HC8   37  -1.074   0.202  -1.675
    1LIG    HC9   38  -1.449   0.457  -1.374
    1LIG   HC10   39  -1.684   0.388  -1.379
    1LIG   HC11   40  -1.601   0.123  -1.704
    1LIG   HC12   41  -1.362   0.189  -1.697
    1LIG   HC13   42  -1.959   0.318  -1.509
    1LIG   HC14   43  -1.821   0.349  -1.402
    1LIG   HC15   44  -2.043   0.187  -1.349
    1LIG   HC16   45  -1.909   0.074  -1.379
    1LIG    HN1   46  -1.213   0.709  -1.357
   0.00000   0.00000   0.00000
