; Created by cgenff_charmm2gmx.py

[ moleculetype ]
; Name			   nrexcl
LIG				 3

[ atoms ]
;	 nr		  type	resnr residue  atom   cgnr	   charge		mass  typeB    chargeB		massB
; residue	 1 LIG rtp LIG q	qsum
     1     CG3C50      1    LIG     C1      1      1.422     12.011   ;
     2      NG3P2      1    LIG     N1      2     -0.588     14.007   ;
     3       HGP2      1    LIG     HN      3      0.336      1.008   ;
     4     CG3C53      1    LIG     C2      4      0.785     12.011   ;
     5     NG2R53      1    LIG     N2      5     -0.178     14.007   ;
     6      CG331      1    LIG     C3      6     -0.169     12.011   ;
     7     CG2R53      1    LIG     C4      7     -0.410     12.011   ;
     8      OG2D1      1    LIG     O1      8     -0.325     15.999   ;
     9      CG301      1    LIG     C5      9      0.062     12.011   ;
    10      CG321      1    LIG     C6     10     -0.175     12.011   ;
    11      CG311      1    LIG     C7     11     -0.106     12.011   ;
    12      CG321      1    LIG     C8     12     -0.178     12.011   ;
    13      CG321      1    LIG     C9     13     -0.178     12.011   ;
    14      CG311      1    LIG    C10     14     -0.106     12.011   ;
    15      CG321      1    LIG    C11     15     -0.175     12.011   ;
    16      CG321      1    LIG    C12     16     -0.178     12.011   ;
    17      CG311      1    LIG    C13     17     -0.106     12.011   ;
    18      CG321      1    LIG    C14     18     -0.175     12.011   ;
    19     CG2R61      1    LIG    C15     19     -0.211     12.011   ;
    20     CG2R61      1    LIG    C16     20     -0.128     12.011   ;
    21     CG2R61      1    LIG    C17     21     -0.106     12.011   ;
    22     CG2R61      1    LIG    C18     22      0.191     12.011   ;
    23     CG2R61      1    LIG    C19     23     -0.003     12.011   ;
    24     CG2R61      1    LIG    C20     24     -0.136     12.011   ;
    25      OG301      1    LIG     O2     25     -0.366     15.999   ;
    26      CG331      1    LIG    C21     26     -0.094     12.011   ;
    27      CG321      1    LIG    C22     27     -0.167     12.011   ;
    28      CG331      1    LIG    C23     28     -0.271     12.011   ;
    29      NG3P3      1    LIG     N3     29     -0.267     14.007   ;
    30       HGP2      1    LIG     H1     30      0.301      1.008   ;
    31       HGP2      1    LIG     H2     31      0.301      1.008   ;
    32       HGP2      1    LIG    HN2     32      0.336      1.008   ;
    33       HGA1      1    LIG     HC     33      0.073      1.008   ;
    34       HGA2      1    LIG    HC2     34      0.090      1.008   ;
    35       HGA2      1    LIG    HC3     35      0.090      1.008   ;
    36       HGA1      1    LIG    HC1     36      0.090      1.008   ;
    37       HGA2      1    LIG    HC4     37      0.090      1.008   ;
    38       HGA2      1    LIG    HC5     38      0.090      1.008   ;
    39       HGA2      1    LIG    HC6     39      0.090      1.008   ;
    40       HGA2      1    LIG    HC7     40      0.090      1.008   ;
    41       HGA1      1    LIG    HC8     41      0.090      1.008   ;
    42       HGA2      1    LIG    HC9     42      0.090      1.008   ;
    43       HGA2      1    LIG   HC10     43      0.090      1.008   ;
    44       HGA2      1    LIG   HC11     44      0.090      1.008   ;
    45       HGA2      1    LIG   HC12     45      0.090      1.008   ;
    46       HGA1      1    LIG   HC13     46      0.090      1.008   ;
    47       HGA2      1    LIG   HC14     47      0.090      1.008   ;
    48       HGA2      1    LIG   HC15     48      0.090      1.008   ;
    49      HGR61      1    LIG   HC16     49      0.116      1.008   ;
    50      HGR61      1    LIG   HC17     50      0.116      1.008   ;
    51      HGR61      1    LIG   HC18     51      0.116      1.008   ;
    52       HGA2      1    LIG   HC19     52      0.090      1.008   ;
    53       HGA2      1    LIG   HC20     53      0.090      1.008   ;
    54       HGP2      1    LIG    HN1     54      0.301      1.008   ;
    55       HGA3      1    LIG   HC21     55      0.090      1.008   ;
    56       HGA3      1    LIG   HC22     56      0.090      1.008   ;
    57       HGA3      1    LIG   HC23     57      0.090      1.008   ;
    58       HGA3      1    LIG   HC24     58      0.090      1.008   ;
    59       HGA3      1    LIG   HC25     59      0.090      1.008   ;
    60       HGA3      1    LIG   HC26     60      0.090      1.008   ;
    61       HGA3      1    LIG   HC27     61      0.090      1.008   ;
    62       HGA3      1    LIG   HC28     62      0.090      1.008   ;
    63       HGA3      1    LIG   HC29     63      0.090      1.008   ;

[ bonds ]
;	ai	  aj funct			  c0			c1			  c2			c3
    1     2	 1 ;      CG3C50      NG3P2
    1     7	 1 ;      CG3C50     CG2R53
    1    19	 1 ;      CG3C50     CG2R61
    1     9	 1 ;      CG3C50      CG301
    2     4	 1 ;       NG3P2     CG3C53
    2     3	 1 ;       NG3P2       HGP2
    2    32	 1 ;       NG3P2       HGP2
    4    29	 1 ;      CG3C53      NG3P3
    4     5	 1 ;      CG3C53     NG2R53
    4    33	 1 ;      CG3C53       HGA1
    5     6	 1 ;      NG2R53      CG331
    5     7	 1 ;      NG2R53     CG2R53
    6    55	 1 ;       CG331       HGA3
    6    56	 1 ;       CG331       HGA3
    6    57	 1 ;       CG331       HGA3
    7     8	 1 ;      CG2R53      OG2D1
    9    15	 1 ;       CG301      CG321
    9    10	 1 ;       CG301      CG321
    9    18	 1 ;       CG301      CG321
   10    11	 1 ;       CG321      CG311
   10    34	 1 ;       CG321       HGA2
   10    35	 1 ;       CG321       HGA2
   11    12	 1 ;       CG311      CG321
   11    13	 1 ;       CG311      CG321
   11    36	 1 ;       CG311       HGA1
   12    14	 1 ;       CG321      CG311
   12    37	 1 ;       CG321       HGA2
   12    38	 1 ;       CG321       HGA2
   13    17	 1 ;       CG321      CG311
   13    39	 1 ;       CG321       HGA2
   13    40	 1 ;       CG321       HGA2
   14    15	 1 ;       CG311      CG321
   14    16	 1 ;       CG311      CG321
   14    41	 1 ;       CG311       HGA1
   15    42	 1 ;       CG321       HGA2
   15    43	 1 ;       CG321       HGA2
   16    17	 1 ;       CG321      CG311
   16    44	 1 ;       CG321       HGA2
   16    45	 1 ;       CG321       HGA2
   17    18	 1 ;       CG311      CG321
   17    46	 1 ;       CG311       HGA1
   18    47	 1 ;       CG321       HGA2
   18    48	 1 ;       CG321       HGA2
   19    20	 1 ;      CG2R61     CG2R61
   19    24	 1 ;      CG2R61     CG2R61
   20    21	 1 ;      CG2R61     CG2R61
   20    49	 1 ;      CG2R61      HGR61
   21    22	 1 ;      CG2R61     CG2R61
   21    50	 1 ;      CG2R61      HGR61
   22    25	 1 ;      CG2R61      OG301
   22    23	 1 ;      CG2R61     CG2R61
   23    27	 1 ;      CG2R61      CG321
   23    24	 1 ;      CG2R61     CG2R61
   24    51	 1 ;      CG2R61      HGR61
   25    26	 1 ;       OG301      CG331
   26    58	 1 ;       CG331       HGA3
   26    59	 1 ;       CG331       HGA3
   26    60	 1 ;       CG331       HGA3
   27    28	 1 ;       CG321      CG331
   27    52	 1 ;       CG321       HGA2
   27    53	 1 ;       CG321       HGA2
   28    61	 1 ;       CG331       HGA3
   28    62	 1 ;       CG331       HGA3
   28    63	 1 ;       CG331       HGA3
   29    30	 1 ;       NG3P3       HGP2
   29    31	 1 ;       NG3P3       HGP2
   29    54	 1 ;       NG3P3       HGP2

[ pairs ]
;	ai	  aj funct			  c0			c1			  c2			c3
    1    29	 1
    1    33	 1
    1     6	 1
    1    14	 1
    1    42	 1
    1    43	 1
    1    11	 1
    1    34	 1
    1    35	 1
    1    17	 1
    1    47	 1
    1    48	 1
    1    21	 1
    1    49	 1
    1    23	 1
    1    51	 1
    2     8	 1
    2    20	 1
    2    24	 1
    2    15	 1
    2    10	 1
    2    18	 1
    2    30	 1
    2    31	 1
    2    54	 1
    2     6	 1
    3     7	 1
    3    19	 1
    3     9	 1
    3    29	 1
    3     5	 1
    3    33	 1
    4    19	 1
    4     9	 1
    4    55	 1
    4    56	 1
    4    57	 1
    4     8	 1
    5    19	 1
    5     9	 1
    5    32	 1
    5    30	 1
    5    31	 1
    5    54	 1
    6    29	 1
    6    33	 1
    6     8	 1
    7    32	 1
    7    20	 1
    7    24	 1
    7    15	 1
    7    10	 1
    7    18	 1
    7    29	 1
    7    33	 1
    7    55	 1
    7    56	 1
    7    57	 1
    8    19	 1
    8     9	 1
    9    32	 1
    9    20	 1
    9    24	 1
    9    12	 1
    9    13	 1
    9    36	 1
    9    16	 1
    9    41	 1
    9    46	 1
   10    19	 1
   10    14	 1
   10    42	 1
   10    43	 1
   10    17	 1
   10    47	 1
   10    48	 1
   10    37	 1
   10    38	 1
   10    39	 1
   10    40	 1
   11    15	 1
   11    18	 1
   11    16	 1
   11    41	 1
   11    46	 1
   12    34	 1
   12    35	 1
   12    17	 1
   12    39	 1
   12    40	 1
   12    42	 1
   12    43	 1
   12    44	 1
   12    45	 1
   13    34	 1
   13    35	 1
   13    14	 1
   13    37	 1
   13    38	 1
   13    44	 1
   13    45	 1
   13    47	 1
   13    48	 1
   14    18	 1
   14    36	 1
   14    46	 1
   15    19	 1
   15    34	 1
   15    35	 1
   15    17	 1
   15    47	 1
   15    48	 1
   15    37	 1
   15    38	 1
   15    44	 1
   15    45	 1
   16    37	 1
   16    38	 1
   16    39	 1
   16    40	 1
   16    42	 1
   16    43	 1
   16    47	 1
   16    48	 1
   17    36	 1
   17    41	 1
   18    19	 1
   18    42	 1
   18    43	 1
   18    34	 1
   18    35	 1
   18    39	 1
   18    40	 1
   18    44	 1
   18    45	 1
   19    32	 1
   19    22	 1
   19    50	 1
   19    27	 1
   20    23	 1
   20    51	 1
   20    25	 1
   21    24	 1
   21    26	 1
   21    27	 1
   22    49	 1
   22    28	 1
   22    52	 1
   22    53	 1
   22    51	 1
   22    58	 1
   22    59	 1
   22    60	 1
   23    50	 1
   23    26	 1
   23    61	 1
   23    62	 1
   23    63	 1
   24    49	 1
   24    25	 1
   24    28	 1
   24    52	 1
   24    53	 1
   25    50	 1
   25    27	 1
   27    51	 1
   29    32	 1
   30    33	 1
   31    33	 1
   32    33	 1
   33    54	 1
   34    36	 1
   35    36	 1
   36    37	 1
   36    38	 1
   36    39	 1
   36    40	 1
   37    41	 1
   38    41	 1
   39    46	 1
   40    46	 1
   41    42	 1
   41    43	 1
   41    44	 1
   41    45	 1
   44    46	 1
   45    46	 1
   46    47	 1
   46    48	 1
   49    50	 1
   52    61	 1
   52    62	 1
   52    63	 1
   53    61	 1
   53    62	 1
   53    63	 1

[ angles ]
;	ai	  aj	ak funct			c0			  c1			c2			  c3
    2     1     7	5 ;      NG3P2     CG3C50     CG2R53
    2     1    19	5 ;      NG3P2     CG3C50     CG2R61
    2     1     9	5 ;      NG3P2     CG3C50      CG301
    7     1    19	5 ;     CG2R53     CG3C50     CG2R61
    7     1     9	5 ;     CG2R53     CG3C50      CG301
   19     1     9	5 ;     CG2R61     CG3C50      CG301
    4     2     3	5 ;     CG3C53      NG3P2       HGP2
    4     2     1	5 ;     CG3C53      NG3P2     CG3C50
    4     2    32	5 ;     CG3C53      NG3P2       HGP2
    3     2     1	5 ;       HGP2      NG3P2     CG3C50
    3     2    32	5 ;       HGP2      NG3P2       HGP2
    1     2    32	5 ;     CG3C50      NG3P2       HGP2
   29     4     5	5 ;      NG3P3     CG3C53     NG2R53
   29     4     2	5 ;      NG3P3     CG3C53      NG3P2
   29     4    33	5 ;      NG3P3     CG3C53       HGA1
    5     4     2	5 ;     NG2R53     CG3C53      NG3P2
    5     4    33	5 ;     NG2R53     CG3C53       HGA1
    2     4    33	5 ;      NG3P2     CG3C53       HGA1
    6     5     4	5 ;      CG331     NG2R53     CG3C53
    6     5     7	5 ;      CG331     NG2R53     CG2R53
    4     5     7	5 ;     CG3C53     NG2R53     CG2R53
    5     6    55	5 ;     NG2R53      CG331       HGA3
    5     6    56	5 ;     NG2R53      CG331       HGA3
    5     6    57	5 ;     NG2R53      CG331       HGA3
   55     6    56	5 ;       HGA3      CG331       HGA3
   55     6    57	5 ;       HGA3      CG331       HGA3
   56     6    57	5 ;       HGA3      CG331       HGA3
    5     7     8	5 ;     NG2R53     CG2R53      OG2D1
    5     7     1	5 ;     NG2R53     CG2R53     CG3C50
    8     7     1	5 ;      OG2D1     CG2R53     CG3C50
    1     9    15	5 ;     CG3C50      CG301      CG321
    1     9    10	5 ;     CG3C50      CG301      CG321
    1     9    18	5 ;     CG3C50      CG301      CG321
   15     9    10	5 ;      CG321      CG301      CG321
   15     9    18	5 ;      CG321      CG301      CG321
   10     9    18	5 ;      CG321      CG301      CG321
    9    10    11	5 ;      CG301      CG321      CG311
    9    10    34	5 ;      CG301      CG321       HGA2
    9    10    35	5 ;      CG301      CG321       HGA2
   11    10    34	5 ;      CG311      CG321       HGA2
   11    10    35	5 ;      CG311      CG321       HGA2
   34    10    35	5 ;       HGA2      CG321       HGA2
   10    11    12	5 ;      CG321      CG311      CG321
   10    11    13	5 ;      CG321      CG311      CG321
   10    11    36	5 ;      CG321      CG311       HGA1
   12    11    13	5 ;      CG321      CG311      CG321
   12    11    36	5 ;      CG321      CG311       HGA1
   13    11    36	5 ;      CG321      CG311       HGA1
   14    12    11	5 ;      CG311      CG321      CG311
   14    12    37	5 ;      CG311      CG321       HGA2
   14    12    38	5 ;      CG311      CG321       HGA2
   11    12    37	5 ;      CG311      CG321       HGA2
   11    12    38	5 ;      CG311      CG321       HGA2
   37    12    38	5 ;       HGA2      CG321       HGA2
   11    13    17	5 ;      CG311      CG321      CG311
   11    13    39	5 ;      CG311      CG321       HGA2
   11    13    40	5 ;      CG311      CG321       HGA2
   17    13    39	5 ;      CG311      CG321       HGA2
   17    13    40	5 ;      CG311      CG321       HGA2
   39    13    40	5 ;       HGA2      CG321       HGA2
   15    14    12	5 ;      CG321      CG311      CG321
   15    14    16	5 ;      CG321      CG311      CG321
   15    14    41	5 ;      CG321      CG311       HGA1
   12    14    16	5 ;      CG321      CG311      CG321
   12    14    41	5 ;      CG321      CG311       HGA1
   16    14    41	5 ;      CG321      CG311       HGA1
    9    15    14	5 ;      CG301      CG321      CG311
    9    15    42	5 ;      CG301      CG321       HGA2
    9    15    43	5 ;      CG301      CG321       HGA2
   14    15    42	5 ;      CG311      CG321       HGA2
   14    15    43	5 ;      CG311      CG321       HGA2
   42    15    43	5 ;       HGA2      CG321       HGA2
   14    16    17	5 ;      CG311      CG321      CG311
   14    16    44	5 ;      CG311      CG321       HGA2
   14    16    45	5 ;      CG311      CG321       HGA2
   17    16    44	5 ;      CG311      CG321       HGA2
   17    16    45	5 ;      CG311      CG321       HGA2
   44    16    45	5 ;       HGA2      CG321       HGA2
   18    17    16	5 ;      CG321      CG311      CG321
   18    17    13	5 ;      CG321      CG311      CG321
   18    17    46	5 ;      CG321      CG311       HGA1
   16    17    13	5 ;      CG321      CG311      CG321
   16    17    46	5 ;      CG321      CG311       HGA1
   13    17    46	5 ;      CG321      CG311       HGA1
    9    18    17	5 ;      CG301      CG321      CG311
    9    18    47	5 ;      CG301      CG321       HGA2
    9    18    48	5 ;      CG301      CG321       HGA2
   17    18    47	5 ;      CG311      CG321       HGA2
   17    18    48	5 ;      CG311      CG321       HGA2
   47    18    48	5 ;       HGA2      CG321       HGA2
   20    19     1	5 ;     CG2R61     CG2R61     CG3C50
   20    19    24	5 ;     CG2R61     CG2R61     CG2R61
    1    19    24	5 ;     CG3C50     CG2R61     CG2R61
   21    20    19	5 ;     CG2R61     CG2R61     CG2R61
   21    20    49	5 ;     CG2R61     CG2R61      HGR61
   19    20    49	5 ;     CG2R61     CG2R61      HGR61
   20    21    22	5 ;     CG2R61     CG2R61     CG2R61
   20    21    50	5 ;     CG2R61     CG2R61      HGR61
   22    21    50	5 ;     CG2R61     CG2R61      HGR61
   21    22    25	5 ;     CG2R61     CG2R61      OG301
   21    22    23	5 ;     CG2R61     CG2R61     CG2R61
   25    22    23	5 ;      OG301     CG2R61     CG2R61
   22    23    27	5 ;     CG2R61     CG2R61      CG321
   22    23    24	5 ;     CG2R61     CG2R61     CG2R61
   27    23    24	5 ;      CG321     CG2R61     CG2R61
   19    24    23	5 ;     CG2R61     CG2R61     CG2R61
   19    24    51	5 ;     CG2R61     CG2R61      HGR61
   23    24    51	5 ;     CG2R61     CG2R61      HGR61
   26    25    22	5 ;      CG331      OG301     CG2R61
   25    26    58	5 ;      OG301      CG331       HGA3
   25    26    59	5 ;      OG301      CG331       HGA3
   25    26    60	5 ;      OG301      CG331       HGA3
   58    26    59	5 ;       HGA3      CG331       HGA3
   58    26    60	5 ;       HGA3      CG331       HGA3
   59    26    60	5 ;       HGA3      CG331       HGA3
   28    27    23	5 ;      CG331      CG321     CG2R61
   28    27    52	5 ;      CG331      CG321       HGA2
   28    27    53	5 ;      CG331      CG321       HGA2
   23    27    52	5 ;     CG2R61      CG321       HGA2
   23    27    53	5 ;     CG2R61      CG321       HGA2
   52    27    53	5 ;       HGA2      CG321       HGA2
   27    28    61	5 ;      CG321      CG331       HGA3
   27    28    62	5 ;      CG321      CG331       HGA3
   27    28    63	5 ;      CG321      CG331       HGA3
   61    28    62	5 ;       HGA3      CG331       HGA3
   61    28    63	5 ;       HGA3      CG331       HGA3
   62    28    63	5 ;       HGA3      CG331       HGA3
   30    29    31	5 ;       HGP2      NG3P3       HGP2
   30    29     4	5 ;       HGP2      NG3P3     CG3C53
   30    29    54	5 ;       HGP2      NG3P3       HGP2
   31    29     4	5 ;       HGP2      NG3P3     CG3C53
   31    29    54	5 ;       HGP2      NG3P3       HGP2
    4    29    54	5 ;     CG3C53      NG3P3       HGP2

[ dihedrals ]
;	ai	  aj	ak	  al funct			  c0			c1			  c2			c3			  c4			c5
    7     1     2     4	 9 ;     CG2R53     CG3C50      NG3P2     CG3C53
    7     1     2     3	 9 ;     CG2R53     CG3C50      NG3P2       HGP2
    7     1     2    32	 9 ;     CG2R53     CG3C50      NG3P2       HGP2
   19     1     2     4	 9 ;     CG2R61     CG3C50      NG3P2     CG3C53
   19     1     2     3	 9 ;     CG2R61     CG3C50      NG3P2       HGP2
   19     1     2    32	 9 ;     CG2R61     CG3C50      NG3P2       HGP2
    9     1     2     4	 9 ;      CG301     CG3C50      NG3P2     CG3C53
    9     1     2     3	 9 ;      CG301     CG3C50      NG3P2       HGP2
    9     1     2    32	 9 ;      CG301     CG3C50      NG3P2       HGP2
    2     1     7     5	 9 ;      NG3P2     CG3C50     CG2R53     NG2R53
    2     1     7     8	 9 ;      NG3P2     CG3C50     CG2R53      OG2D1
   19     1     7     5	 9 ;     CG2R61     CG3C50     CG2R53     NG2R53
   19     1     7     8	 9 ;     CG2R61     CG3C50     CG2R53      OG2D1
    9     1     7     5	 9 ;      CG301     CG3C50     CG2R53     NG2R53
    9     1     7     8	 9 ;      CG301     CG3C50     CG2R53      OG2D1
    2     1    19    20	 9 ;      NG3P2     CG3C50     CG2R61     CG2R61
    2     1    19    24	 9 ;      NG3P2     CG3C50     CG2R61     CG2R61
    7     1    19    20	 9 ;     CG2R53     CG3C50     CG2R61     CG2R61
    7     1    19    24	 9 ;     CG2R53     CG3C50     CG2R61     CG2R61
    9     1    19    20	 9 ;      CG301     CG3C50     CG2R61     CG2R61
    9     1    19    24	 9 ;      CG301     CG3C50     CG2R61     CG2R61
    2     1     9    15	 9 ;      NG3P2     CG3C50      CG301      CG321
    2     1     9    10	 9 ;      NG3P2     CG3C50      CG301      CG321
    2     1     9    18	 9 ;      NG3P2     CG3C50      CG301      CG321
    7     1     9    15	 9 ;     CG2R53     CG3C50      CG301      CG321
    7     1     9    10	 9 ;     CG2R53     CG3C50      CG301      CG321
    7     1     9    18	 9 ;     CG2R53     CG3C50      CG301      CG321
   19     1     9    15	 9 ;     CG2R61     CG3C50      CG301      CG321
   19     1     9    10	 9 ;     CG2R61     CG3C50      CG301      CG321
   19     1     9    18	 9 ;     CG2R61     CG3C50      CG301      CG321
    3     2     4    29	 9 ;       HGP2      NG3P2     CG3C53      NG3P3
    3     2     4     5	 9 ;       HGP2      NG3P2     CG3C53     NG2R53
    3     2     4    33	 9 ;       HGP2      NG3P2     CG3C53       HGA1
    1     2     4    29	 9 ;     CG3C50      NG3P2     CG3C53      NG3P3
    1     2     4     5	 9 ;     CG3C50      NG3P2     CG3C53     NG2R53
    1     2     4    33	 9 ;     CG3C50      NG3P2     CG3C53       HGA1
   32     2     4    29	 9 ;       HGP2      NG3P2     CG3C53      NG3P3
   32     2     4     5	 9 ;       HGP2      NG3P2     CG3C53     NG2R53
   32     2     4    33	 9 ;       HGP2      NG3P2     CG3C53       HGA1
    5     4    29    30	 9 ;     NG2R53     CG3C53      NG3P3       HGP2
    5     4    29    31	 9 ;     NG2R53     CG3C53      NG3P3       HGP2
    5     4    29    54	 9 ;     NG2R53     CG3C53      NG3P3       HGP2
    2     4    29    30	 9 ;      NG3P2     CG3C53      NG3P3       HGP2
    2     4    29    31	 9 ;      NG3P2     CG3C53      NG3P3       HGP2
    2     4    29    54	 9 ;      NG3P2     CG3C53      NG3P3       HGP2
   33     4    29    30	 9 ;       HGA1     CG3C53      NG3P3       HGP2
   33     4    29    31	 9 ;       HGA1     CG3C53      NG3P3       HGP2
   33     4    29    54	 9 ;       HGA1     CG3C53      NG3P3       HGP2
   29     4     5     6	 9 ;      NG3P3     CG3C53     NG2R53      CG331
   29     4     5     7	 9 ;      NG3P3     CG3C53     NG2R53     CG2R53
    2     4     5     6	 9 ;      NG3P2     CG3C53     NG2R53      CG331
    2     4     5     7	 9 ;      NG3P2     CG3C53     NG2R53     CG2R53
   33     4     5     6	 9 ;       HGA1     CG3C53     NG2R53      CG331
   33     4     5     7	 9 ;       HGA1     CG3C53     NG2R53     CG2R53
    4     5     6    55	 9 ;     CG3C53     NG2R53      CG331       HGA3
    4     5     6    56	 9 ;     CG3C53     NG2R53      CG331       HGA3
    4     5     6    57	 9 ;     CG3C53     NG2R53      CG331       HGA3
    7     5     6    55	 9 ;     CG2R53     NG2R53      CG331       HGA3
    7     5     6    56	 9 ;     CG2R53     NG2R53      CG331       HGA3
    7     5     6    57	 9 ;     CG2R53     NG2R53      CG331       HGA3
    6     5     7     8	 9 ;      CG331     NG2R53     CG2R53      OG2D1
    6     5     7     1	 9 ;      CG331     NG2R53     CG2R53     CG3C50
    4     5     7     8	 9 ;     CG3C53     NG2R53     CG2R53      OG2D1
    4     5     7     1	 9 ;     CG3C53     NG2R53     CG2R53     CG3C50
    1     9    15    14	 9 ;     CG3C50      CG301      CG321      CG311
    1     9    15    42	 9 ;     CG3C50      CG301      CG321       HGA2
    1     9    15    43	 9 ;     CG3C50      CG301      CG321       HGA2
   10     9    15    14	 9 ;      CG321      CG301      CG321      CG311
   10     9    15    42	 9 ;      CG321      CG301      CG321       HGA2
   10     9    15    43	 9 ;      CG321      CG301      CG321       HGA2
   18     9    15    14	 9 ;      CG321      CG301      CG321      CG311
   18     9    15    42	 9 ;      CG321      CG301      CG321       HGA2
   18     9    15    43	 9 ;      CG321      CG301      CG321       HGA2
    1     9    10    11	 9 ;     CG3C50      CG301      CG321      CG311
    1     9    10    34	 9 ;     CG3C50      CG301      CG321       HGA2
    1     9    10    35	 9 ;     CG3C50      CG301      CG321       HGA2
   15     9    10    11	 9 ;      CG321      CG301      CG321      CG311
   15     9    10    34	 9 ;      CG321      CG301      CG321       HGA2
   15     9    10    35	 9 ;      CG321      CG301      CG321       HGA2
   18     9    10    11	 9 ;      CG321      CG301      CG321      CG311
   18     9    10    34	 9 ;      CG321      CG301      CG321       HGA2
   18     9    10    35	 9 ;      CG321      CG301      CG321       HGA2
    1     9    18    17	 9 ;     CG3C50      CG301      CG321      CG311
    1     9    18    47	 9 ;     CG3C50      CG301      CG321       HGA2
    1     9    18    48	 9 ;     CG3C50      CG301      CG321       HGA2
   15     9    18    17	 9 ;      CG321      CG301      CG321      CG311
   15     9    18    47	 9 ;      CG321      CG301      CG321       HGA2
   15     9    18    48	 9 ;      CG321      CG301      CG321       HGA2
   10     9    18    17	 9 ;      CG321      CG301      CG321      CG311
   10     9    18    47	 9 ;      CG321      CG301      CG321       HGA2
   10     9    18    48	 9 ;      CG321      CG301      CG321       HGA2
    9    10    11    12	 9 ;      CG301      CG321      CG311      CG321
    9    10    11    13	 9 ;      CG301      CG321      CG311      CG321
    9    10    11    36	 9 ;      CG301      CG321      CG311       HGA1
   34    10    11    12	 9 ;       HGA2      CG321      CG311      CG321
   34    10    11    13	 9 ;       HGA2      CG321      CG311      CG321
   34    10    11    36	 9 ;       HGA2      CG321      CG311       HGA1
   35    10    11    12	 9 ;       HGA2      CG321      CG311      CG321
   35    10    11    13	 9 ;       HGA2      CG321      CG311      CG321
   35    10    11    36	 9 ;       HGA2      CG321      CG311       HGA1
   10    11    12    14	 9 ;      CG321      CG311      CG321      CG311
   10    11    12    37	 9 ;      CG321      CG311      CG321       HGA2
   10    11    12    38	 9 ;      CG321      CG311      CG321       HGA2
   13    11    12    14	 9 ;      CG321      CG311      CG321      CG311
   13    11    12    37	 9 ;      CG321      CG311      CG321       HGA2
   13    11    12    38	 9 ;      CG321      CG311      CG321       HGA2
   36    11    12    14	 9 ;       HGA1      CG311      CG321      CG311
   36    11    12    37	 9 ;       HGA1      CG311      CG321       HGA2
   36    11    12    38	 9 ;       HGA1      CG311      CG321       HGA2
   10    11    13    17	 9 ;      CG321      CG311      CG321      CG311
   10    11    13    39	 9 ;      CG321      CG311      CG321       HGA2
   10    11    13    40	 9 ;      CG321      CG311      CG321       HGA2
   12    11    13    17	 9 ;      CG321      CG311      CG321      CG311
   12    11    13    39	 9 ;      CG321      CG311      CG321       HGA2
   12    11    13    40	 9 ;      CG321      CG311      CG321       HGA2
   36    11    13    17	 9 ;       HGA1      CG311      CG321      CG311
   36    11    13    39	 9 ;       HGA1      CG311      CG321       HGA2
   36    11    13    40	 9 ;       HGA1      CG311      CG321       HGA2
   11    12    14    15	 9 ;      CG311      CG321      CG311      CG321
   11    12    14    16	 9 ;      CG311      CG321      CG311      CG321
   11    12    14    41	 9 ;      CG311      CG321      CG311       HGA1
   37    12    14    15	 9 ;       HGA2      CG321      CG311      CG321
   37    12    14    16	 9 ;       HGA2      CG321      CG311      CG321
   37    12    14    41	 9 ;       HGA2      CG321      CG311       HGA1
   38    12    14    15	 9 ;       HGA2      CG321      CG311      CG321
   38    12    14    16	 9 ;       HGA2      CG321      CG311      CG321
   38    12    14    41	 9 ;       HGA2      CG321      CG311       HGA1
   11    13    17    18	 9 ;      CG311      CG321      CG311      CG321
   11    13    17    16	 9 ;      CG311      CG321      CG311      CG321
   11    13    17    46	 9 ;      CG311      CG321      CG311       HGA1
   39    13    17    18	 9 ;       HGA2      CG321      CG311      CG321
   39    13    17    16	 9 ;       HGA2      CG321      CG311      CG321
   39    13    17    46	 9 ;       HGA2      CG321      CG311       HGA1
   40    13    17    18	 9 ;       HGA2      CG321      CG311      CG321
   40    13    17    16	 9 ;       HGA2      CG321      CG311      CG321
   40    13    17    46	 9 ;       HGA2      CG321      CG311       HGA1
   12    14    15     9	 9 ;      CG321      CG311      CG321      CG301
   12    14    15    42	 9 ;      CG321      CG311      CG321       HGA2
   12    14    15    43	 9 ;      CG321      CG311      CG321       HGA2
   16    14    15     9	 9 ;      CG321      CG311      CG321      CG301
   16    14    15    42	 9 ;      CG321      CG311      CG321       HGA2
   16    14    15    43	 9 ;      CG321      CG311      CG321       HGA2
   41    14    15     9	 9 ;       HGA1      CG311      CG321      CG301
   41    14    15    42	 9 ;       HGA1      CG311      CG321       HGA2
   41    14    15    43	 9 ;       HGA1      CG311      CG321       HGA2
   15    14    16    17	 9 ;      CG321      CG311      CG321      CG311
   15    14    16    44	 9 ;      CG321      CG311      CG321       HGA2
   15    14    16    45	 9 ;      CG321      CG311      CG321       HGA2
   12    14    16    17	 9 ;      CG321      CG311      CG321      CG311
   12    14    16    44	 9 ;      CG321      CG311      CG321       HGA2
   12    14    16    45	 9 ;      CG321      CG311      CG321       HGA2
   41    14    16    17	 9 ;       HGA1      CG311      CG321      CG311
   41    14    16    44	 9 ;       HGA1      CG311      CG321       HGA2
   41    14    16    45	 9 ;       HGA1      CG311      CG321       HGA2
   14    16    17    18	 9 ;      CG311      CG321      CG311      CG321
   14    16    17    13	 9 ;      CG311      CG321      CG311      CG321
   14    16    17    46	 9 ;      CG311      CG321      CG311       HGA1
   44    16    17    18	 9 ;       HGA2      CG321      CG311      CG321
   44    16    17    13	 9 ;       HGA2      CG321      CG311      CG321
   44    16    17    46	 9 ;       HGA2      CG321      CG311       HGA1
   45    16    17    18	 9 ;       HGA2      CG321      CG311      CG321
   45    16    17    13	 9 ;       HGA2      CG321      CG311      CG321
   45    16    17    46	 9 ;       HGA2      CG321      CG311       HGA1
   16    17    18     9	 9 ;      CG321      CG311      CG321      CG301
   16    17    18    47	 9 ;      CG321      CG311      CG321       HGA2
   16    17    18    48	 9 ;      CG321      CG311      CG321       HGA2
   13    17    18     9	 9 ;      CG321      CG311      CG321      CG301
   13    17    18    47	 9 ;      CG321      CG311      CG321       HGA2
   13    17    18    48	 9 ;      CG321      CG311      CG321       HGA2
   46    17    18     9	 9 ;       HGA1      CG311      CG321      CG301
   46    17    18    47	 9 ;       HGA1      CG311      CG321       HGA2
   46    17    18    48	 9 ;       HGA1      CG311      CG321       HGA2
    1    19    20    21	 9 ;     CG3C50     CG2R61     CG2R61     CG2R61
    1    19    20    49	 9 ;     CG3C50     CG2R61     CG2R61      HGR61
   24    19    20    21	 9 ;     CG2R61     CG2R61     CG2R61     CG2R61
   24    19    20    49	 9 ;     CG2R61     CG2R61     CG2R61      HGR61
   20    19    24    23	 9 ;     CG2R61     CG2R61     CG2R61     CG2R61
   20    19    24    51	 9 ;     CG2R61     CG2R61     CG2R61      HGR61
    1    19    24    23	 9 ;     CG3C50     CG2R61     CG2R61     CG2R61
    1    19    24    51	 9 ;     CG3C50     CG2R61     CG2R61      HGR61
   19    20    21    22	 9 ;     CG2R61     CG2R61     CG2R61     CG2R61
   19    20    21    50	 9 ;     CG2R61     CG2R61     CG2R61      HGR61
   49    20    21    22	 9 ;      HGR61     CG2R61     CG2R61     CG2R61
   49    20    21    50	 9 ;      HGR61     CG2R61     CG2R61      HGR61
   20    21    22    25	 9 ;     CG2R61     CG2R61     CG2R61      OG301
   20    21    22    23	 9 ;     CG2R61     CG2R61     CG2R61     CG2R61
   50    21    22    25	 9 ;      HGR61     CG2R61     CG2R61      OG301
   50    21    22    23	 9 ;      HGR61     CG2R61     CG2R61     CG2R61
   21    22    25    26	 9 ;     CG2R61     CG2R61      OG301      CG331
   23    22    25    26	 9 ;     CG2R61     CG2R61      OG301      CG331
   21    22    23    27	 9 ;     CG2R61     CG2R61     CG2R61      CG321
   21    22    23    24	 9 ;     CG2R61     CG2R61     CG2R61     CG2R61
   25    22    23    27	 9 ;      OG301     CG2R61     CG2R61      CG321
   25    22    23    24	 9 ;      OG301     CG2R61     CG2R61     CG2R61
   22    23    27    28	 9 ;     CG2R61     CG2R61      CG321      CG331
   22    23    27    52	 9 ;     CG2R61     CG2R61      CG321       HGA2
   22    23    27    53	 9 ;     CG2R61     CG2R61      CG321       HGA2
   24    23    27    28	 9 ;     CG2R61     CG2R61      CG321      CG331
   24    23    27    52	 9 ;     CG2R61     CG2R61      CG321       HGA2
   24    23    27    53	 9 ;     CG2R61     CG2R61      CG321       HGA2
   22    23    24    19	 9 ;     CG2R61     CG2R61     CG2R61     CG2R61
   22    23    24    51	 9 ;     CG2R61     CG2R61     CG2R61      HGR61
   27    23    24    19	 9 ;      CG321     CG2R61     CG2R61     CG2R61
   27    23    24    51	 9 ;      CG321     CG2R61     CG2R61      HGR61
   22    25    26    58	 9 ;     CG2R61      OG301      CG331       HGA3
   22    25    26    59	 9 ;     CG2R61      OG301      CG331       HGA3
   22    25    26    60	 9 ;     CG2R61      OG301      CG331       HGA3
   23    27    28    61	 9 ;     CG2R61      CG321      CG331       HGA3
   23    27    28    62	 9 ;     CG2R61      CG321      CG331       HGA3
   23    27    28    63	 9 ;     CG2R61      CG321      CG331       HGA3
   52    27    28    61	 9 ;       HGA2      CG321      CG331       HGA3
   52    27    28    62	 9 ;       HGA2      CG321      CG331       HGA3
   52    27    28    63	 9 ;       HGA2      CG321      CG331       HGA3
   53    27    28    61	 9 ;       HGA2      CG321      CG331       HGA3
   53    27    28    62	 9 ;       HGA2      CG321      CG331       HGA3
   53    27    28    63	 9 ;       HGA2      CG321      CG331       HGA3

[ dihedrals ]
;	ai	  aj	ak	  al funct			  c0			c1			  c2			c3
    7     1     5     8	 2

