Gallium Rubidium Oxygen Manganese Argon Carbon Silicon
   63
    1LIG     C1    1  -1.562   0.399  -1.590
    1LIG     N1    2  -1.576   0.318  -1.718
    1LIG     HN    3  -1.638   0.239  -1.734
    1LIG     C2    4  -1.493   0.370  -1.802
    1LIG     N2    5  -1.426   0.480  -1.762
    1LIG     C3    6  -1.320   0.549  -1.831
    1LIG     C4    7  -1.474   0.517  -1.640
    1LIG     O1    8  -1.449   0.621  -1.581
    1LIG     C5    9  -1.707   0.442  -1.546
    1LIG     C6   10  -1.805   0.321  -1.552
    1LIG     C7   11  -1.949   0.361  -1.515
    1LIG     C8   12  -1.998   0.468  -1.613
    1LIG     C9   13  -1.949   0.418  -1.372
    1LIG    C10   14  -1.908   0.592  -1.605
    1LIG    C11   15  -1.764   0.553  -1.642
    1LIG    C12   16  -1.910   0.647  -1.461
    1LIG    C13   17  -1.858   0.541  -1.364
    1LIG    C14   18  -1.714   0.501  -1.402
    1LIG    C15   19  -1.482   0.315  -1.487
    1LIG    C16   20  -1.466   0.177  -1.504
    1LIG    C17   21  -1.383   0.102  -1.420
    1LIG    C18   22  -1.313   0.164  -1.316
    1LIG    C19   23  -1.327   0.302  -1.298
    1LIG    C20   24  -1.414   0.375  -1.380
    1LIG     O2   25  -1.228   0.099  -1.230
    1LIG    C21   26  -1.242  -0.042  -1.218
    1LIG    C22   27  -1.247   0.378  -1.194
    1LIG    C23   28  -1.159   0.486  -1.255
    1LIG     N3   29  -1.477   0.319  -1.926
    1LIG     H1   30  -1.378   0.309  -1.951
    1LIG     H2   31  -1.531   0.236  -1.949
    1LIG    HN2   32  -1.503   0.255  -1.686
    1LIG     HC   33  -1.413   0.306  -1.764
    1LIG    HC2   34  -1.771   0.245  -1.482
    1LIG    HC3   35  -1.805   0.280  -1.653
    1LIG    HC1   36  -2.014   0.274  -1.520
    1LIG    HC4   37  -1.996   0.428  -1.714
    1LIG    HC5   38  -2.100   0.497  -1.587
    1LIG    HC6   39  -2.051   0.446  -1.344
    1LIG    HC7   40  -1.913   0.341  -1.303
    1LIG    HC8   41  -1.944   0.669  -1.674
    1LIG    HC9   42  -1.700   0.641  -1.636
    1LIG   HC10   43  -1.763   0.515  -1.744
    1LIG   HC11   44  -1.846   0.736  -1.456
    1LIG   HC12   45  -2.012   0.675  -1.434
    1LIG   HC13   46  -1.859   0.581  -1.262
    1LIG   HC14   47  -1.650   0.589  -1.396
    1LIG   HC15   48  -1.678   0.426  -1.332
    1LIG   HC16   49  -1.519   0.127  -1.584
    1LIG   HC17   50  -1.374  -0.005  -1.434
    1LIG   HC18   51  -1.430   0.480  -1.361
    1LIG   HC19   52  -1.183   0.307  -1.141
    1LIG   HC20   53  -1.315   0.423  -1.122
    1LIG    HN1   54  -1.512   0.390  -1.989
    1LIG   HC21   55  -1.288   0.634  -1.772
    1LIG   HC22   56  -1.237   0.481  -1.846
    1LIG   HC23   57  -1.357   0.584  -1.928
    1LIG   HC24   58  -1.180  -0.077  -1.136
    1LIG   HC25   59  -1.346  -0.067  -1.199
    1LIG   HC26   60  -1.209  -0.089  -1.311
    1LIG   HC27   61  -1.104   0.537  -1.176
    1LIG   HC28   62  -1.222   0.558  -1.307
    1LIG   HC29   63  -1.089   0.441  -1.325
   0.00000   0.00000   0.00000
