GROtesk MACabre and Sinister
   26
    1LIG     O2    1   2.257   4.038  -1.853
    1LIG     C1    2   2.285   4.158  -1.649
    1LIG     C2    3   2.295   4.137  -1.794
    1LIG     O3    4   2.268   4.232  -1.384
    1LIG     C3    5   2.113   4.061  -1.334
    1LIG     C4    6   2.038   3.951  -1.381
    1LIG     C5    7   2.112   4.093  -1.197
    1LIG     C6    8   1.965   3.874  -1.290
    1LIG     C7    9   2.038   4.015  -1.109
    1LIG     C8   10   1.964   3.906  -1.155
    1LIG     C9   11   2.185   4.112  -1.573
    1LIG    C10   12   2.062   4.037  -1.615
    1LIG    C11   13   2.195   4.143  -1.426
    1LIG    C12   14   2.041   3.914  -1.527
    1LIG     O1   15   2.034   4.043  -0.976
    1LIG     H1   16   1.955   4.096  -0.957
    1LIG     O4   17   2.352   4.243  -1.855
    1LIG    H10   18   2.447   4.233  -1.875
    1LIG     H2   19   2.361   4.212  -1.603
    1LIG     H3   20   2.166   4.174  -1.163
    1LIG     H4   21   1.912   3.792  -1.324
    1LIG     H5   22   1.910   3.849  -1.088
    1LIG     H6   23   2.073   4.005  -1.717
    1LIG     H7   24   1.977   4.101  -1.605
    1LIG     H8   25   2.121   3.845  -1.544
    1LIG     H9   26   1.947   3.869  -1.553
   0.00000   0.00000   0.00000
