Getting the Right Output Means no Artefacts in Calculating Stuff
   43
    1LIG     C1    1  -1.452   0.368  -1.571
    1LIG     N1    2  -1.430   0.287  -1.697
    1LIG     HN    3  -1.478   0.201  -1.723
    1LIG     C2    4  -1.338   0.347  -1.764
    1LIG     N2    5  -1.289   0.460  -1.711
    1LIG     C3    6  -1.163   0.523  -1.744
    1LIG     C4    7  -1.365   0.493  -1.601
    1LIG     O1    8  -1.355   0.597  -1.537
    1LIG     C5    9  -1.602   0.392  -1.551
    1LIG     C6   10  -1.694   0.308  -1.618
    1LIG     C7   11  -1.830   0.308  -1.588
    1LIG     C8   12  -1.878   0.394  -1.489
    1LIG     C9   13  -1.791   0.481  -1.424
    1LIG    C10   14  -1.654   0.480  -1.455
    1LIG    C11   15  -1.393   0.294  -1.447
    1LIG    C12   16  -1.353   0.365  -1.333
    1LIG    C13   17  -1.299   0.300  -1.221
    1LIG    C14   18  -1.286   0.161  -1.221
    1LIG    C15   19  -1.327   0.089  -1.334
    1LIG    C16   20  -1.381   0.154  -1.445
    1LIG     O2   21  -1.234   0.087  -1.119
    1LIG    C17   22  -1.189  -0.043  -1.155
    1LIG     F1   23  -1.053  -0.041  -1.150
    1LIG     F2   24  -1.230  -0.131  -1.061
    1LIG     N3   25  -1.296   0.302  -1.885
    1LIG     H1   26  -1.373   0.270  -1.942
    1LIG     H2   27  -1.233   0.363  -1.935
    1LIG    HN2   28  -1.359   0.232  -1.650
    1LIG     HC   29  -1.261   0.289  -1.714
    1LIG    HC1   30  -1.658   0.242  -1.696
    1LIG    HC2   31  -1.898   0.243  -1.640
    1LIG    HC3   32  -1.983   0.392  -1.462
    1LIG    HC4   33  -1.829   0.549  -1.350
    1LIG    HC5   34  -1.587   0.549  -1.404
    1LIG    HC6   35  -1.365   0.472  -1.330
    1LIG    HC7   36  -1.266   0.357  -1.136
    1LIG    HC8   37  -1.317  -0.018  -1.334
    1LIG    HC9   38  -1.413   0.096  -1.530
    1LIG   HC10   39  -1.225  -0.071  -1.254
    1LIG    HN1   40  -1.242   0.219  -1.865
    1LIG   HC11   41  -1.151   0.613  -1.684
    1LIG   HC12   42  -1.082   0.454  -1.723
    1LIG   HC13   43  -1.163   0.549  -1.850
   0.00000   0.00000   0.00000
