; Created by cgenff_charmm2gmx.py

[ moleculetype ]
; Name			   nrexcl
LIG				 3

[ atoms ]
;	 nr		  type	resnr residue  atom   cgnr	   charge		mass  typeB    chargeB		massB
; residue	 1 LIG rtp LIG q	qsum
     1     CG3C50      1    LIG     C1      1      1.599     12.011   ;
     2      NG3P2      1    LIG     N1      2     -0.701     14.007   ;
     3       HGP2      1    LIG     HN      3      0.353      1.008   ;
     4     CG3C53      1    LIG     C2      4      0.784     12.011   ;
     5     NG2R53      1    LIG     N2      5     -0.171     14.007   ;
     6      CG331      1    LIG     C3      6     -0.169     12.011   ;
     7     CG2R53      1    LIG     C4      7     -0.361     12.011   ;
     8      OG2D1      1    LIG     O1      8     -0.342     15.999   ;
     9     CG2R61      1    LIG     C5      9     -0.154     12.011   ;
    10     CG2R61      1    LIG     C6     10     -0.131     12.011   ;
    11     CG2R61      1    LIG     C7     11     -0.105     12.011   ;
    12     CG2R61      1    LIG     C8     12     -0.116     12.011   ;
    13     CG2R61      1    LIG     C9     13     -0.105     12.011   ;
    14     CG2R61      1    LIG    C10     14     -0.131     12.011   ;
    15     CG2R61      1    LIG    C11     15     -0.154     12.011   ;
    16     CG2R61      1    LIG    C12     16     -0.128     12.011   ;
    17     CG2R61      1    LIG    C13     17     -0.108     12.011   ;
    18     CG2R61      1    LIG    C14     18      0.217     12.011   ;
    19     CG2R61      1    LIG    C15     19     -0.108     12.011   ;
    20     CG2R61      1    LIG    C16     20     -0.128     12.011   ;
    21      OG301      1    LIG     O2     21     -0.272     15.999   ;
    22      CG312      1    LIG    C17     22      0.216     12.011   ;
    23       FGA2      1    LIG     F1     23     -0.160     18.998   ;
    24       FGA2      1    LIG     F2     24     -0.160     18.998   ;
    25      NG3P3      1    LIG     N3     25     -0.267     14.007   ;
    26       HGP2      1    LIG     H1     26      0.301      1.008   ;
    27       HGP2      1    LIG     H2     27      0.301      1.008   ;
    28       HGP2      1    LIG    HN2     28      0.353      1.008   ;
    29       HGA1      1    LIG     HC     29      0.073      1.008   ;
    30      HGR61      1    LIG    HC1     30      0.116      1.008   ;
    31      HGR61      1    LIG    HC2     31      0.116      1.008   ;
    32      HGR61      1    LIG    HC3     32      0.116      1.008   ;
    33      HGR61      1    LIG    HC4     33      0.116      1.008   ;
    34      HGR61      1    LIG    HC5     34      0.116      1.008   ;
    35      HGR61      1    LIG    HC6     35      0.116      1.008   ;
    36      HGR61      1    LIG    HC7     36      0.116      1.008   ;
    37      HGR61      1    LIG    HC8     37      0.116      1.008   ;
    38      HGR61      1    LIG    HC9     38      0.116      1.008   ;
    39       HGA7      1    LIG   HC10     39      0.159      1.008   ;
    40       HGP2      1    LIG    HN1     40      0.301      1.008   ;
    41       HGA3      1    LIG   HC11     41      0.090      1.008   ;
    42       HGA3      1    LIG   HC12     42      0.090      1.008   ;
    43       HGA3      1    LIG   HC13     43      0.090      1.008   ;

[ bonds ]
;	ai	  aj funct			  c0			c1			  c2			c3
    1     2	 1 ;      CG3C50      NG3P2
    1     7	 1 ;      CG3C50     CG2R53
    1    15	 1 ;      CG3C50     CG2R61
    1     9	 1 ;      CG3C50     CG2R61
    2     4	 1 ;       NG3P2     CG3C53
    2     3	 1 ;       NG3P2       HGP2
    2    28	 1 ;       NG3P2       HGP2
    4    25	 1 ;      CG3C53      NG3P3
    4     5	 1 ;      CG3C53     NG2R53
    4    29	 1 ;      CG3C53       HGA1
    5     6	 1 ;      NG2R53      CG331
    5     7	 1 ;      NG2R53     CG2R53
    6    41	 1 ;       CG331       HGA3
    6    42	 1 ;       CG331       HGA3
    6    43	 1 ;       CG331       HGA3
    7     8	 1 ;      CG2R53      OG2D1
    9    10	 1 ;      CG2R61     CG2R61
    9    14	 1 ;      CG2R61     CG2R61
   10    11	 1 ;      CG2R61     CG2R61
   10    30	 1 ;      CG2R61      HGR61
   11    12	 1 ;      CG2R61     CG2R61
   11    31	 1 ;      CG2R61      HGR61
   12    13	 1 ;      CG2R61     CG2R61
   12    32	 1 ;      CG2R61      HGR61
   13    14	 1 ;      CG2R61     CG2R61
   13    33	 1 ;      CG2R61      HGR61
   14    34	 1 ;      CG2R61      HGR61
   15    20	 1 ;      CG2R61     CG2R61
   15    16	 1 ;      CG2R61     CG2R61
   16    17	 1 ;      CG2R61     CG2R61
   16    35	 1 ;      CG2R61      HGR61
   17    18	 1 ;      CG2R61     CG2R61
   17    36	 1 ;      CG2R61      HGR61
   18    19	 1 ;      CG2R61     CG2R61
   18    21	 1 ;      CG2R61      OG301
   19    20	 1 ;      CG2R61     CG2R61
   19    37	 1 ;      CG2R61      HGR61
   20    38	 1 ;      CG2R61      HGR61
   21    22	 1 ;       OG301      CG312
   22    23	 1 ;       CG312       FGA2
   22    24	 1 ;       CG312       FGA2
   22    39	 1 ;       CG312       HGA7
   25    27	 1 ;       NG3P3       HGP2
   25    26	 1 ;       NG3P3       HGP2
   25    40	 1 ;       NG3P3       HGP2

[ pairs ]
;	ai	  aj funct			  c0			c1			  c2			c3
    1    25	 1
    1    29	 1
    1     6	 1
    1    11	 1
    1    30	 1
    1    13	 1
    1    34	 1
    1    19	 1
    1    38	 1
    1    17	 1
    1    35	 1
    2     8	 1
    2    20	 1
    2    16	 1
    2    10	 1
    2    14	 1
    2    27	 1
    2    26	 1
    2    40	 1
    2     6	 1
    3     7	 1
    3    15	 1
    3     9	 1
    3    25	 1
    3     5	 1
    3    29	 1
    4    15	 1
    4     9	 1
    4    41	 1
    4    42	 1
    4    43	 1
    4     8	 1
    5    15	 1
    5     9	 1
    5    28	 1
    5    27	 1
    5    26	 1
    5    40	 1
    6    25	 1
    6    29	 1
    6     8	 1
    7    28	 1
    7    20	 1
    7    16	 1
    7    10	 1
    7    14	 1
    7    25	 1
    7    29	 1
    7    41	 1
    7    42	 1
    7    43	 1
    8    15	 1
    8     9	 1
    9    28	 1
    9    20	 1
    9    16	 1
    9    12	 1
    9    31	 1
    9    33	 1
   10    15	 1
   10    13	 1
   10    34	 1
   10    32	 1
   11    14	 1
   11    33	 1
   12    30	 1
   12    34	 1
   13    31	 1
   14    15	 1
   14    30	 1
   14    32	 1
   15    28	 1
   15    18	 1
   15    36	 1
   15    37	 1
   16    19	 1
   16    38	 1
   16    21	 1
   17    20	 1
   17    37	 1
   17    22	 1
   18    35	 1
   18    38	 1
   18    23	 1
   18    24	 1
   18    39	 1
   19    36	 1
   19    22	 1
   20    35	 1
   20    21	 1
   21    36	 1
   21    37	 1
   25    28	 1
   26    29	 1
   27    29	 1
   28    29	 1
   29    40	 1
   30    31	 1
   31    32	 1
   32    33	 1
   33    34	 1
   35    36	 1
   37    38	 1

[ angles ]
;	ai	  aj	ak funct			c0			  c1			c2			  c3
    2     1     7	5 ;      NG3P2     CG3C50     CG2R53
    2     1    15	5 ;      NG3P2     CG3C50     CG2R61
    2     1     9	5 ;      NG3P2     CG3C50     CG2R61
    7     1    15	5 ;     CG2R53     CG3C50     CG2R61
    7     1     9	5 ;     CG2R53     CG3C50     CG2R61
   15     1     9	5 ;     CG2R61     CG3C50     CG2R61
    4     2     3	5 ;     CG3C53      NG3P2       HGP2
    4     2     1	5 ;     CG3C53      NG3P2     CG3C50
    4     2    28	5 ;     CG3C53      NG3P2       HGP2
    3     2     1	5 ;       HGP2      NG3P2     CG3C50
    3     2    28	5 ;       HGP2      NG3P2       HGP2
    1     2    28	5 ;     CG3C50      NG3P2       HGP2
   25     4     5	5 ;      NG3P3     CG3C53     NG2R53
   25     4     2	5 ;      NG3P3     CG3C53      NG3P2
   25     4    29	5 ;      NG3P3     CG3C53       HGA1
    5     4     2	5 ;     NG2R53     CG3C53      NG3P2
    5     4    29	5 ;     NG2R53     CG3C53       HGA1
    2     4    29	5 ;      NG3P2     CG3C53       HGA1
    6     5     4	5 ;      CG331     NG2R53     CG3C53
    6     5     7	5 ;      CG331     NG2R53     CG2R53
    4     5     7	5 ;     CG3C53     NG2R53     CG2R53
    5     6    41	5 ;     NG2R53      CG331       HGA3
    5     6    42	5 ;     NG2R53      CG331       HGA3
    5     6    43	5 ;     NG2R53      CG331       HGA3
   41     6    42	5 ;       HGA3      CG331       HGA3
   41     6    43	5 ;       HGA3      CG331       HGA3
   42     6    43	5 ;       HGA3      CG331       HGA3
    5     7     8	5 ;     NG2R53     CG2R53      OG2D1
    5     7     1	5 ;     NG2R53     CG2R53     CG3C50
    8     7     1	5 ;      OG2D1     CG2R53     CG3C50
    1     9    10	5 ;     CG3C50     CG2R61     CG2R61
    1     9    14	5 ;     CG3C50     CG2R61     CG2R61
   10     9    14	5 ;     CG2R61     CG2R61     CG2R61
    9    10    11	5 ;     CG2R61     CG2R61     CG2R61
    9    10    30	5 ;     CG2R61     CG2R61      HGR61
   11    10    30	5 ;     CG2R61     CG2R61      HGR61
   10    11    12	5 ;     CG2R61     CG2R61     CG2R61
   10    11    31	5 ;     CG2R61     CG2R61      HGR61
   12    11    31	5 ;     CG2R61     CG2R61      HGR61
   11    12    13	5 ;     CG2R61     CG2R61     CG2R61
   11    12    32	5 ;     CG2R61     CG2R61      HGR61
   13    12    32	5 ;     CG2R61     CG2R61      HGR61
   14    13    12	5 ;     CG2R61     CG2R61     CG2R61
   14    13    33	5 ;     CG2R61     CG2R61      HGR61
   12    13    33	5 ;     CG2R61     CG2R61      HGR61
    9    14    13	5 ;     CG2R61     CG2R61     CG2R61
    9    14    34	5 ;     CG2R61     CG2R61      HGR61
   13    14    34	5 ;     CG2R61     CG2R61      HGR61
   20    15     1	5 ;     CG2R61     CG2R61     CG3C50
   20    15    16	5 ;     CG2R61     CG2R61     CG2R61
    1    15    16	5 ;     CG3C50     CG2R61     CG2R61
   15    16    17	5 ;     CG2R61     CG2R61     CG2R61
   15    16    35	5 ;     CG2R61     CG2R61      HGR61
   17    16    35	5 ;     CG2R61     CG2R61      HGR61
   18    17    16	5 ;     CG2R61     CG2R61     CG2R61
   18    17    36	5 ;     CG2R61     CG2R61      HGR61
   16    17    36	5 ;     CG2R61     CG2R61      HGR61
   19    18    21	5 ;     CG2R61     CG2R61      OG301
   19    18    17	5 ;     CG2R61     CG2R61     CG2R61
   21    18    17	5 ;      OG301     CG2R61     CG2R61
   20    19    18	5 ;     CG2R61     CG2R61     CG2R61
   20    19    37	5 ;     CG2R61     CG2R61      HGR61
   18    19    37	5 ;     CG2R61     CG2R61      HGR61
   19    20    15	5 ;     CG2R61     CG2R61     CG2R61
   19    20    38	5 ;     CG2R61     CG2R61      HGR61
   15    20    38	5 ;     CG2R61     CG2R61      HGR61
   22    21    18	5 ;      CG312      OG301     CG2R61
   23    22    21	5 ;       FGA2      CG312      OG301
   23    22    24	5 ;       FGA2      CG312       FGA2
   23    22    39	5 ;       FGA2      CG312       HGA7
   21    22    24	5 ;      OG301      CG312       FGA2
   21    22    39	5 ;      OG301      CG312       HGA7
   24    22    39	5 ;       FGA2      CG312       HGA7
   27    25    26	5 ;       HGP2      NG3P3       HGP2
   27    25     4	5 ;       HGP2      NG3P3     CG3C53
   27    25    40	5 ;       HGP2      NG3P3       HGP2
   26    25     4	5 ;       HGP2      NG3P3     CG3C53
   26    25    40	5 ;       HGP2      NG3P3       HGP2
    4    25    40	5 ;     CG3C53      NG3P3       HGP2

[ dihedrals ]
;	ai	  aj	ak	  al funct			  c0			c1			  c2			c3			  c4			c5
    7     1     2     4	 9 ;     CG2R53     CG3C50      NG3P2     CG3C53
    7     1     2     3	 9 ;     CG2R53     CG3C50      NG3P2       HGP2
    7     1     2    28	 9 ;     CG2R53     CG3C50      NG3P2       HGP2
   15     1     2     4	 9 ;     CG2R61     CG3C50      NG3P2     CG3C53
   15     1     2     3	 9 ;     CG2R61     CG3C50      NG3P2       HGP2
   15     1     2    28	 9 ;     CG2R61     CG3C50      NG3P2       HGP2
    9     1     2     4	 9 ;     CG2R61     CG3C50      NG3P2     CG3C53
    9     1     2     3	 9 ;     CG2R61     CG3C50      NG3P2       HGP2
    9     1     2    28	 9 ;     CG2R61     CG3C50      NG3P2       HGP2
    2     1     7     5	 9 ;      NG3P2     CG3C50     CG2R53     NG2R53
    2     1     7     8	 9 ;      NG3P2     CG3C50     CG2R53      OG2D1
   15     1     7     5	 9 ;     CG2R61     CG3C50     CG2R53     NG2R53
   15     1     7     8	 9 ;     CG2R61     CG3C50     CG2R53      OG2D1
    9     1     7     5	 9 ;     CG2R61     CG3C50     CG2R53     NG2R53
    9     1     7     8	 9 ;     CG2R61     CG3C50     CG2R53      OG2D1
    2     1    15    20	 9 ;      NG3P2     CG3C50     CG2R61     CG2R61
    2     1    15    16	 9 ;      NG3P2     CG3C50     CG2R61     CG2R61
    7     1    15    20	 9 ;     CG2R53     CG3C50     CG2R61     CG2R61
    7     1    15    16	 9 ;     CG2R53     CG3C50     CG2R61     CG2R61
    9     1    15    20	 9 ;     CG2R61     CG3C50     CG2R61     CG2R61
    9     1    15    16	 9 ;     CG2R61     CG3C50     CG2R61     CG2R61
    2     1     9    10	 9 ;      NG3P2     CG3C50     CG2R61     CG2R61
    2     1     9    14	 9 ;      NG3P2     CG3C50     CG2R61     CG2R61
    7     1     9    10	 9 ;     CG2R53     CG3C50     CG2R61     CG2R61
    7     1     9    14	 9 ;     CG2R53     CG3C50     CG2R61     CG2R61
   15     1     9    10	 9 ;     CG2R61     CG3C50     CG2R61     CG2R61
   15     1     9    14	 9 ;     CG2R61     CG3C50     CG2R61     CG2R61
    3     2     4    25	 9 ;       HGP2      NG3P2     CG3C53      NG3P3
    3     2     4     5	 9 ;       HGP2      NG3P2     CG3C53     NG2R53
    3     2     4    29	 9 ;       HGP2      NG3P2     CG3C53       HGA1
    1     2     4    25	 9 ;     CG3C50      NG3P2     CG3C53      NG3P3
    1     2     4     5	 9 ;     CG3C50      NG3P2     CG3C53     NG2R53
    1     2     4    29	 9 ;     CG3C50      NG3P2     CG3C53       HGA1
   28     2     4    25	 9 ;       HGP2      NG3P2     CG3C53      NG3P3
   28     2     4     5	 9 ;       HGP2      NG3P2     CG3C53     NG2R53
   28     2     4    29	 9 ;       HGP2      NG3P2     CG3C53       HGA1
    5     4    25    27	 9 ;     NG2R53     CG3C53      NG3P3       HGP2
    5     4    25    26	 9 ;     NG2R53     CG3C53      NG3P3       HGP2
    5     4    25    40	 9 ;     NG2R53     CG3C53      NG3P3       HGP2
    2     4    25    27	 9 ;      NG3P2     CG3C53      NG3P3       HGP2
    2     4    25    26	 9 ;      NG3P2     CG3C53      NG3P3       HGP2
    2     4    25    40	 9 ;      NG3P2     CG3C53      NG3P3       HGP2
   29     4    25    27	 9 ;       HGA1     CG3C53      NG3P3       HGP2
   29     4    25    26	 9 ;       HGA1     CG3C53      NG3P3       HGP2
   29     4    25    40	 9 ;       HGA1     CG3C53      NG3P3       HGP2
   25     4     5     6	 9 ;      NG3P3     CG3C53     NG2R53      CG331
   25     4     5     7	 9 ;      NG3P3     CG3C53     NG2R53     CG2R53
    2     4     5     6	 9 ;      NG3P2     CG3C53     NG2R53      CG331
    2     4     5     7	 9 ;      NG3P2     CG3C53     NG2R53     CG2R53
   29     4     5     6	 9 ;       HGA1     CG3C53     NG2R53      CG331
   29     4     5     7	 9 ;       HGA1     CG3C53     NG2R53     CG2R53
    4     5     6    41	 9 ;     CG3C53     NG2R53      CG331       HGA3
    4     5     6    42	 9 ;     CG3C53     NG2R53      CG331       HGA3
    4     5     6    43	 9 ;     CG3C53     NG2R53      CG331       HGA3
    7     5     6    41	 9 ;     CG2R53     NG2R53      CG331       HGA3
    7     5     6    42	 9 ;     CG2R53     NG2R53      CG331       HGA3
    7     5     6    43	 9 ;     CG2R53     NG2R53      CG331       HGA3
    6     5     7     8	 9 ;      CG331     NG2R53     CG2R53      OG2D1
    6     5     7     1	 9 ;      CG331     NG2R53     CG2R53     CG3C50
    4     5     7     8	 9 ;     CG3C53     NG2R53     CG2R53      OG2D1
    4     5     7     1	 9 ;     CG3C53     NG2R53     CG2R53     CG3C50
    1     9    10    11	 9 ;     CG3C50     CG2R61     CG2R61     CG2R61
    1     9    10    30	 9 ;     CG3C50     CG2R61     CG2R61      HGR61
   14     9    10    11	 9 ;     CG2R61     CG2R61     CG2R61     CG2R61
   14     9    10    30	 9 ;     CG2R61     CG2R61     CG2R61      HGR61
    1     9    14    13	 9 ;     CG3C50     CG2R61     CG2R61     CG2R61
    1     9    14    34	 9 ;     CG3C50     CG2R61     CG2R61      HGR61
   10     9    14    13	 9 ;     CG2R61     CG2R61     CG2R61     CG2R61
   10     9    14    34	 9 ;     CG2R61     CG2R61     CG2R61      HGR61
    9    10    11    12	 9 ;     CG2R61     CG2R61     CG2R61     CG2R61
    9    10    11    31	 9 ;     CG2R61     CG2R61     CG2R61      HGR61
   30    10    11    12	 9 ;      HGR61     CG2R61     CG2R61     CG2R61
   30    10    11    31	 9 ;      HGR61     CG2R61     CG2R61      HGR61
   10    11    12    13	 9 ;     CG2R61     CG2R61     CG2R61     CG2R61
   10    11    12    32	 9 ;     CG2R61     CG2R61     CG2R61      HGR61
   31    11    12    13	 9 ;      HGR61     CG2R61     CG2R61     CG2R61
   31    11    12    32	 9 ;      HGR61     CG2R61     CG2R61      HGR61
   11    12    13    14	 9 ;     CG2R61     CG2R61     CG2R61     CG2R61
   11    12    13    33	 9 ;     CG2R61     CG2R61     CG2R61      HGR61
   32    12    13    14	 9 ;      HGR61     CG2R61     CG2R61     CG2R61
   32    12    13    33	 9 ;      HGR61     CG2R61     CG2R61      HGR61
   12    13    14     9	 9 ;     CG2R61     CG2R61     CG2R61     CG2R61
   12    13    14    34	 9 ;     CG2R61     CG2R61     CG2R61      HGR61
   33    13    14     9	 9 ;      HGR61     CG2R61     CG2R61     CG2R61
   33    13    14    34	 9 ;      HGR61     CG2R61     CG2R61      HGR61
    1    15    20    19	 9 ;     CG3C50     CG2R61     CG2R61     CG2R61
    1    15    20    38	 9 ;     CG3C50     CG2R61     CG2R61      HGR61
   16    15    20    19	 9 ;     CG2R61     CG2R61     CG2R61     CG2R61
   16    15    20    38	 9 ;     CG2R61     CG2R61     CG2R61      HGR61
   20    15    16    17	 9 ;     CG2R61     CG2R61     CG2R61     CG2R61
   20    15    16    35	 9 ;     CG2R61     CG2R61     CG2R61      HGR61
    1    15    16    17	 9 ;     CG3C50     CG2R61     CG2R61     CG2R61
    1    15    16    35	 9 ;     CG3C50     CG2R61     CG2R61      HGR61
   15    16    17    18	 9 ;     CG2R61     CG2R61     CG2R61     CG2R61
   15    16    17    36	 9 ;     CG2R61     CG2R61     CG2R61      HGR61
   35    16    17    18	 9 ;      HGR61     CG2R61     CG2R61     CG2R61
   35    16    17    36	 9 ;      HGR61     CG2R61     CG2R61      HGR61
   16    17    18    19	 9 ;     CG2R61     CG2R61     CG2R61     CG2R61
   16    17    18    21	 9 ;     CG2R61     CG2R61     CG2R61      OG301
   36    17    18    19	 9 ;      HGR61     CG2R61     CG2R61     CG2R61
   36    17    18    21	 9 ;      HGR61     CG2R61     CG2R61      OG301
   21    18    19    20	 9 ;      OG301     CG2R61     CG2R61     CG2R61
   21    18    19    37	 9 ;      OG301     CG2R61     CG2R61      HGR61
   17    18    19    20	 9 ;     CG2R61     CG2R61     CG2R61     CG2R61
   17    18    19    37	 9 ;     CG2R61     CG2R61     CG2R61      HGR61
   19    18    21    22	 9 ;     CG2R61     CG2R61      OG301      CG312
   17    18    21    22	 9 ;     CG2R61     CG2R61      OG301      CG312
   18    19    20    15	 9 ;     CG2R61     CG2R61     CG2R61     CG2R61
   18    19    20    38	 9 ;     CG2R61     CG2R61     CG2R61      HGR61
   37    19    20    15	 9 ;      HGR61     CG2R61     CG2R61     CG2R61
   37    19    20    38	 9 ;      HGR61     CG2R61     CG2R61      HGR61
   18    21    22    23	 9 ;     CG2R61      OG301      CG312       FGA2
   18    21    22    24	 9 ;     CG2R61      OG301      CG312       FGA2
   18    21    22    39	 9 ;     CG2R61      OG301      CG312       HGA7

[ dihedrals ]
;	ai	  aj	ak	  al funct			  c0			c1			  c2			c3
    7     1     5     8	 2

