GRowing Old MAkes el Chrono Sweat
   48
    1LIG     C1    1  -1.405   0.371  -1.500
    1LIG     C2    2  -1.303   0.475  -1.543
    1LIG     C3    3  -1.261   0.497  -1.673
    1LIG      S    4  -1.162   0.636  -1.683
    1LIG     C4    5  -1.179   0.658  -1.514
    1LIG     N1    6  -1.255   0.571  -1.453
    1LIG     HN    7  -1.277   0.573  -1.354
    1LIG     N2    8  -1.120   0.761  -1.451
    1LIG     H1    9  -1.102   0.751  -1.352
    1LIG     H2   10  -1.044   0.805  -1.503
    1LIG     C5   11  -1.536   0.357  -1.583
    1LIG     C6   12  -1.661   0.438  -1.552
    1LIG     C7   13  -1.767   0.378  -1.482
    1LIG     C8   14  -1.890   0.444  -1.469
    1LIG     C9   15  -1.911   0.569  -1.527
    1LIG    C10   16  -1.802   0.634  -1.586
    1LIG    C11   17  -1.676   0.572  -1.589
    1LIG     N3   18  -1.999   0.380  -1.393
    1LIG     O1   19  -1.997   0.257  -1.382
    1LIG     O2   20  -2.085   0.454  -1.341
    1LIG     O3   21  -1.571   0.649  -1.631
    1LIG    C12   22  -1.569   0.775  -1.565
    1LIG    C13   23  -1.322   0.247  -1.466
    1LIG    C14   24  -1.294   0.153  -1.567
    1LIG    C15   25  -1.227   0.034  -1.539
    1LIG    C16   26  -1.184   0.007  -1.409
    1LIG    C17   27  -1.205   0.102  -1.310
    1LIG    C18   28  -1.274   0.221  -1.338
    1LIG     O4   29  -1.120  -0.106  -1.366
    1LIG    C19   30  -0.983  -0.119  -1.402
    1LIG     HC   31  -1.439   0.407  -1.403
    1LIG    HC1   32  -1.287   0.434  -1.757
    1LIG    HC2   33  -1.509   0.380  -1.686
    1LIG    HC3   34  -1.564   0.252  -1.580
    1LIG    HC4   35  -1.753   0.280  -1.438
    1LIG    HC5   36  -2.009   0.614  -1.527
    1LIG    HC6   37  -1.815   0.732  -1.628
    1LIG    HC7   38  -1.468   0.816  -1.567
    1LIG    HC8   39  -1.602   0.762  -1.461
    1LIG    HC9   40  -1.637   0.844  -1.616
    1LIG   HC10   41  -1.325   0.173  -1.668
    1LIG   HC11   42  -1.208  -0.038  -1.617
    1LIG   HC12   43  -1.168   0.084  -1.210
    1LIG   HC13   44  -1.289   0.293  -1.259
    1LIG   HC14   45  -0.944  -0.213  -1.363
    1LIG   HC15   46  -0.927  -0.036  -1.361
    1LIG   HC16   47  -0.974  -0.119  -1.511
    1LIG    H21   48  -1.091   0.596  -1.497
   0.00000   0.00000   0.00000
