Gnomes, ROck Monsters And Chili Sauce
   61
    1LIG     C1    1  -1.407   0.415  -1.540
    1LIG     N1    2  -1.357   0.554  -1.503
    1LIG     HN    3  -1.369   0.601  -1.414
    1LIG     C2    4  -1.298   0.600  -1.609
    1LIG     N2    5  -1.290   0.517  -1.714
    1LIG     C3    6  -1.266   0.554  -1.852
    1LIG     C4    7  -1.338   0.394  -1.677
    1LIG     O1    8  -1.335   0.293  -1.745
    1LIG     C5    9  -1.367   0.315  -1.430
    1LIG     C6   10  -1.370   0.175  -1.454
    1LIG     C7   11  -1.323   0.081  -1.360
    1LIG     C8   12  -1.270   0.127  -1.239
    1LIG     C9   13  -1.270   0.264  -1.212
    1LIG    C10   14  -1.319   0.357  -1.305
    1LIG     O2   15  -1.328  -0.055  -1.379
    1LIG    C11   16  -1.443  -0.125  -1.334
    1LIG     O3   17  -1.218   0.052  -1.136
    1LIG    C12   18  -1.094  -0.013  -1.159
    1LIG    C13   19  -1.565   0.423  -1.565
    1LIG    C14   20  -1.641   0.450  -1.432
    1LIG    C15   21  -1.793   0.458  -1.454
    1LIG    C16   22  -1.842   0.325  -1.513
    1LIG    C17   23  -1.824   0.572  -1.551
    1LIG    C18   24  -1.774   0.299  -1.648
    1LIG    C19   25  -1.622   0.291  -1.627
    1LIG    C20   26  -1.808   0.414  -1.744
    1LIG    C21   27  -1.757   0.546  -1.686
    1LIG    C22   28  -1.605   0.538  -1.666
    1LIG     N3   29  -1.243   0.724  -1.613
    1LIG     H1   30  -1.145   0.721  -1.638
    1LIG     H2   31  -1.295   0.792  -1.667
    1LIG    HN2   32  -1.445   0.594  -1.536
    1LIG     HC   33  -1.392   0.639  -1.646
    1LIG    HC1   34  -1.409   0.140  -1.548
    1LIG    HC2   35  -1.233   0.299  -1.117
    1LIG    HC3   36  -1.318   0.462  -1.281
    1LIG    HC4   37  -1.620   0.369  -1.362
    1LIG    HC5   38  -1.606   0.544  -1.389
    1LIG    HC6   39  -1.843   0.476  -1.359
    1LIG    HC7   40  -1.818   0.243  -1.445
    1LIG    HC8   41  -1.950   0.329  -1.527
    1LIG    HC9   42  -1.787   0.666  -1.509
    1LIG   HC10   43  -1.932   0.580  -1.565
    1LIG   HC11   44  -1.810   0.205  -1.690
    1LIG   HC12   45  -1.573   0.274  -1.723
    1LIG   HC13   46  -1.599   0.208  -1.560
    1LIG   HC14   47  -1.916   0.419  -1.758
    1LIG   HC15   48  -1.760   0.396  -1.840
    1LIG   HC16   49  -1.780   0.628  -1.755
    1LIG   HC17   50  -1.569   0.633  -1.626
    1LIG   HC18   51  -1.557   0.518  -1.762
    1LIG    HN1   52  -1.246   0.757  -1.518
    1LIG   HC19   53  -1.431  -0.231  -1.356
    1LIG   HC20   54  -1.454  -0.112  -1.227
    1LIG   HC21   55  -1.531  -0.087  -1.385
    1LIG   HC22   56  -1.065  -0.069  -1.070
    1LIG   HC23   57  -1.018   0.061  -1.183
    1LIG   HC24   58  -1.105  -0.082  -1.243
    1LIG   HC25   59  -1.266   0.465  -1.914
    1LIG   HC26   60  -1.169   0.604  -1.859
    1LIG   HC27   61  -1.345   0.622  -1.885
   0.00000   0.00000   0.00000
