; Created by cgenff_charmm2gmx.py

[ moleculetype ]
; Name			   nrexcl
LIG				 3

[ atoms ]
;	 nr		  type	resnr residue  atom   cgnr	   charge		mass  typeB    chargeB		massB
; residue	 1 LIG rtp LIG q	qsum
     1     CG3C50      1    LIG     C1      1      1.422     12.011   ;
     2      NG3P2      1    LIG     N1      2     -0.588     14.007   ;
     3       HGP2      1    LIG     HN      3      0.336      1.008   ;
     4     CG3C53      1    LIG     C2      4      0.785     12.011   ;
     5     NG2R53      1    LIG     N2      5     -0.178     14.007   ;
     6      CG331      1    LIG     C3      6     -0.169     12.011   ;
     7     CG2R53      1    LIG     C4      7     -0.410     12.011   ;
     8      OG2D1      1    LIG     O1      8     -0.325     15.999   ;
     9     CG2R61      1    LIG     C5      9     -0.212     12.011   ;
    10     CG2R61      1    LIG     C6     10     -0.133     12.011   ;
    11     CG2R61      1    LIG     C7     11      0.212     12.011   ;
    12     CG2R61      1    LIG     C8     12      0.201     12.011   ;
    13     CG2R61      1    LIG     C9     13     -0.107     12.011   ;
    14     CG2R61      1    LIG    C10     14     -0.128     12.011   ;
    15      OG301      1    LIG     O2     15     -0.378     15.999   ;
    16      CG331      1    LIG    C11     16     -0.094     12.011   ;
    17      OG301      1    LIG     O3     17     -0.378     15.999   ;
    18      CG331      1    LIG    C12     18     -0.094     12.011   ;
    19      CG301      1    LIG    C13     19      0.062     12.011   ;
    20      CG321      1    LIG    C14     20     -0.175     12.011   ;
    21      CG311      1    LIG    C15     21     -0.106     12.011   ;
    22      CG321      1    LIG    C16     22     -0.178     12.011   ;
    23      CG321      1    LIG    C17     23     -0.178     12.011   ;
    24      CG311      1    LIG    C18     24     -0.106     12.011   ;
    25      CG321      1    LIG    C19     25     -0.175     12.011   ;
    26      CG321      1    LIG    C20     26     -0.178     12.011   ;
    27      CG311      1    LIG    C21     27     -0.106     12.011   ;
    28      CG321      1    LIG    C22     28     -0.175     12.011   ;
    29      NG3P3      1    LIG     N3     29     -0.267     14.007   ;
    30       HGP2      1    LIG     H1     30      0.301      1.008   ;
    31       HGP2      1    LIG     H2     31      0.301      1.008   ;
    32       HGP2      1    LIG    HN2     32      0.336      1.008   ;
    33       HGA1      1    LIG     HC     33      0.073      1.008   ;
    34      HGR61      1    LIG    HC1     34      0.116      1.008   ;
    35      HGR61      1    LIG    HC2     35      0.116      1.008   ;
    36      HGR61      1    LIG    HC3     36      0.116      1.008   ;
    37       HGA2      1    LIG    HC4     37      0.090      1.008   ;
    38       HGA2      1    LIG    HC5     38      0.090      1.008   ;
    39       HGA1      1    LIG    HC6     39      0.090      1.008   ;
    40       HGA2      1    LIG    HC7     40      0.090      1.008   ;
    41       HGA2      1    LIG    HC8     41      0.090      1.008   ;
    42       HGA2      1    LIG    HC9     42      0.090      1.008   ;
    43       HGA2      1    LIG   HC10     43      0.090      1.008   ;
    44       HGA1      1    LIG   HC11     44      0.090      1.008   ;
    45       HGA2      1    LIG   HC12     45      0.090      1.008   ;
    46       HGA2      1    LIG   HC13     46      0.090      1.008   ;
    47       HGA2      1    LIG   HC14     47      0.090      1.008   ;
    48       HGA2      1    LIG   HC15     48      0.090      1.008   ;
    49       HGA1      1    LIG   HC16     49      0.090      1.008   ;
    50       HGA2      1    LIG   HC17     50      0.090      1.008   ;
    51       HGA2      1    LIG   HC18     51      0.090      1.008   ;
    52       HGP2      1    LIG    HN1     52      0.301      1.008   ;
    53       HGA3      1    LIG   HC19     53      0.090      1.008   ;
    54       HGA3      1    LIG   HC20     54      0.090      1.008   ;
    55       HGA3      1    LIG   HC21     55      0.090      1.008   ;
    56       HGA3      1    LIG   HC22     56      0.090      1.008   ;
    57       HGA3      1    LIG   HC23     57      0.090      1.008   ;
    58       HGA3      1    LIG   HC24     58      0.090      1.008   ;
    59       HGA3      1    LIG   HC25     59      0.090      1.008   ;
    60       HGA3      1    LIG   HC26     60      0.090      1.008   ;
    61       HGA3      1    LIG   HC27     61      0.090      1.008   ;

[ bonds ]
;	ai	  aj funct			  c0			c1			  c2			c3
    1     7	 1 ;      CG3C50     CG2R53
    1     2	 1 ;      CG3C50      NG3P2
    1     9	 1 ;      CG3C50     CG2R61
    1    19	 1 ;      CG3C50      CG301
    2     4	 1 ;       NG3P2     CG3C53
    2     3	 1 ;       NG3P2       HGP2
    2    32	 1 ;       NG3P2       HGP2
    4     5	 1 ;      CG3C53     NG2R53
    4    29	 1 ;      CG3C53      NG3P3
    4    33	 1 ;      CG3C53       HGA1
    5     6	 1 ;      NG2R53      CG331
    5     7	 1 ;      NG2R53     CG2R53
    6    59	 1 ;       CG331       HGA3
    6    60	 1 ;       CG331       HGA3
    6    61	 1 ;       CG331       HGA3
    7     8	 1 ;      CG2R53      OG2D1
    9    10	 1 ;      CG2R61     CG2R61
    9    14	 1 ;      CG2R61     CG2R61
   10    11	 1 ;      CG2R61     CG2R61
   10    34	 1 ;      CG2R61      HGR61
   11    15	 1 ;      CG2R61      OG301
   11    12	 1 ;      CG2R61     CG2R61
   12    17	 1 ;      CG2R61      OG301
   12    13	 1 ;      CG2R61     CG2R61
   13    14	 1 ;      CG2R61     CG2R61
   13    35	 1 ;      CG2R61      HGR61
   14    36	 1 ;      CG2R61      HGR61
   15    16	 1 ;       OG301      CG331
   16    53	 1 ;       CG331       HGA3
   16    54	 1 ;       CG331       HGA3
   16    55	 1 ;       CG331       HGA3
   17    18	 1 ;       OG301      CG331
   18    56	 1 ;       CG331       HGA3
   18    57	 1 ;       CG331       HGA3
   18    58	 1 ;       CG331       HGA3
   19    28	 1 ;       CG301      CG321
   19    25	 1 ;       CG301      CG321
   19    20	 1 ;       CG301      CG321
   20    21	 1 ;       CG321      CG311
   20    37	 1 ;       CG321       HGA2
   20    38	 1 ;       CG321       HGA2
   21    23	 1 ;       CG311      CG321
   21    22	 1 ;       CG311      CG321
   21    39	 1 ;       CG311       HGA1
   22    24	 1 ;       CG321      CG311
   22    40	 1 ;       CG321       HGA2
   22    41	 1 ;       CG321       HGA2
   23    27	 1 ;       CG321      CG311
   23    42	 1 ;       CG321       HGA2
   23    43	 1 ;       CG321       HGA2
   24    25	 1 ;       CG311      CG321
   24    26	 1 ;       CG311      CG321
   24    44	 1 ;       CG311       HGA1
   25    45	 1 ;       CG321       HGA2
   25    46	 1 ;       CG321       HGA2
   26    27	 1 ;       CG321      CG311
   26    47	 1 ;       CG321       HGA2
   26    48	 1 ;       CG321       HGA2
   27    28	 1 ;       CG311      CG321
   27    49	 1 ;       CG311       HGA1
   28    50	 1 ;       CG321       HGA2
   28    51	 1 ;       CG321       HGA2
   29    30	 1 ;       NG3P3       HGP2
   29    31	 1 ;       NG3P3       HGP2
   29    52	 1 ;       NG3P3       HGP2

[ pairs ]
;	ai	  aj funct			  c0			c1			  c2			c3
    1    29	 1
    1    33	 1
    1     6	 1
    1    11	 1
    1    34	 1
    1    13	 1
    1    36	 1
    1    27	 1
    1    50	 1
    1    51	 1
    1    24	 1
    1    45	 1
    1    46	 1
    1    21	 1
    1    37	 1
    1    38	 1
    2     8	 1
    2    10	 1
    2    14	 1
    2    28	 1
    2    25	 1
    2    20	 1
    2     6	 1
    2    30	 1
    2    31	 1
    2    52	 1
    3     7	 1
    3     9	 1
    3    19	 1
    3     5	 1
    3    29	 1
    3    33	 1
    4     9	 1
    4    19	 1
    4    59	 1
    4    60	 1
    4    61	 1
    4     8	 1
    5     9	 1
    5    19	 1
    5    32	 1
    5    30	 1
    5    31	 1
    5    52	 1
    6    29	 1
    6    33	 1
    6     8	 1
    7    32	 1
    7    10	 1
    7    14	 1
    7    28	 1
    7    25	 1
    7    20	 1
    7    29	 1
    7    33	 1
    7    59	 1
    7    60	 1
    7    61	 1
    8     9	 1
    8    19	 1
    9    32	 1
    9    28	 1
    9    25	 1
    9    20	 1
    9    15	 1
    9    12	 1
    9    35	 1
   10    19	 1
   10    13	 1
   10    36	 1
   10    16	 1
   10    17	 1
   11    14	 1
   11    18	 1
   11    35	 1
   11    53	 1
   11    54	 1
   11    55	 1
   12    34	 1
   12    16	 1
   12    36	 1
   12    56	 1
   12    57	 1
   12    58	 1
   13    15	 1
   13    18	 1
   14    19	 1
   14    34	 1
   14    17	 1
   15    34	 1
   15    17	 1
   17    35	 1
   19    32	 1
   19    23	 1
   19    22	 1
   19    39	 1
   19    26	 1
   19    44	 1
   19    49	 1
   20    27	 1
   20    50	 1
   20    51	 1
   20    24	 1
   20    45	 1
   20    46	 1
   20    42	 1
   20    43	 1
   20    40	 1
   20    41	 1
   21    28	 1
   21    25	 1
   21    26	 1
   21    44	 1
   21    49	 1
   22    37	 1
   22    38	 1
   22    27	 1
   22    42	 1
   22    43	 1
   22    45	 1
   22    46	 1
   22    47	 1
   22    48	 1
   23    37	 1
   23    38	 1
   23    24	 1
   23    40	 1
   23    41	 1
   23    47	 1
   23    48	 1
   23    50	 1
   23    51	 1
   24    28	 1
   24    39	 1
   24    49	 1
   25    27	 1
   25    50	 1
   25    51	 1
   25    37	 1
   25    38	 1
   25    40	 1
   25    41	 1
   25    47	 1
   25    48	 1
   26    40	 1
   26    41	 1
   26    42	 1
   26    43	 1
   26    45	 1
   26    46	 1
   26    50	 1
   26    51	 1
   27    39	 1
   27    44	 1
   28    45	 1
   28    46	 1
   28    37	 1
   28    38	 1
   28    42	 1
   28    43	 1
   28    47	 1
   28    48	 1
   29    32	 1
   30    33	 1
   31    33	 1
   32    33	 1
   33    52	 1
   35    36	 1
   37    39	 1
   38    39	 1
   39    42	 1
   39    43	 1
   39    40	 1
   39    41	 1
   40    44	 1
   41    44	 1
   42    49	 1
   43    49	 1
   44    45	 1
   44    46	 1
   44    47	 1
   44    48	 1
   47    49	 1
   48    49	 1
   49    50	 1
   49    51	 1

[ angles ]
;	ai	  aj	ak funct			c0			  c1			c2			  c3
    7     1     2	5 ;     CG2R53     CG3C50      NG3P2
    7     1     9	5 ;     CG2R53     CG3C50     CG2R61
    7     1    19	5 ;     CG2R53     CG3C50      CG301
    2     1     9	5 ;      NG3P2     CG3C50     CG2R61
    2     1    19	5 ;      NG3P2     CG3C50      CG301
    9     1    19	5 ;     CG2R61     CG3C50      CG301
    4     2     1	5 ;     CG3C53      NG3P2     CG3C50
    4     2     3	5 ;     CG3C53      NG3P2       HGP2
    4     2    32	5 ;     CG3C53      NG3P2       HGP2
    1     2     3	5 ;     CG3C50      NG3P2       HGP2
    1     2    32	5 ;     CG3C50      NG3P2       HGP2
    3     2    32	5 ;       HGP2      NG3P2       HGP2
    5     4    29	5 ;     NG2R53     CG3C53      NG3P3
    5     4     2	5 ;     NG2R53     CG3C53      NG3P2
    5     4    33	5 ;     NG2R53     CG3C53       HGA1
   29     4     2	5 ;      NG3P3     CG3C53      NG3P2
   29     4    33	5 ;      NG3P3     CG3C53       HGA1
    2     4    33	5 ;      NG3P2     CG3C53       HGA1
    6     5     7	5 ;      CG331     NG2R53     CG2R53
    6     5     4	5 ;      CG331     NG2R53     CG3C53
    7     5     4	5 ;     CG2R53     NG2R53     CG3C53
    5     6    59	5 ;     NG2R53      CG331       HGA3
    5     6    60	5 ;     NG2R53      CG331       HGA3
    5     6    61	5 ;     NG2R53      CG331       HGA3
   59     6    60	5 ;       HGA3      CG331       HGA3
   59     6    61	5 ;       HGA3      CG331       HGA3
   60     6    61	5 ;       HGA3      CG331       HGA3
    8     7     5	5 ;      OG2D1     CG2R53     NG2R53
    8     7     1	5 ;      OG2D1     CG2R53     CG3C50
    5     7     1	5 ;     NG2R53     CG2R53     CG3C50
   10     9     1	5 ;     CG2R61     CG2R61     CG3C50
   10     9    14	5 ;     CG2R61     CG2R61     CG2R61
    1     9    14	5 ;     CG3C50     CG2R61     CG2R61
   11    10     9	5 ;     CG2R61     CG2R61     CG2R61
   11    10    34	5 ;     CG2R61     CG2R61      HGR61
    9    10    34	5 ;     CG2R61     CG2R61      HGR61
   15    11    10	5 ;      OG301     CG2R61     CG2R61
   15    11    12	5 ;      OG301     CG2R61     CG2R61
   10    11    12	5 ;     CG2R61     CG2R61     CG2R61
   11    12    17	5 ;     CG2R61     CG2R61      OG301
   11    12    13	5 ;     CG2R61     CG2R61     CG2R61
   17    12    13	5 ;      OG301     CG2R61     CG2R61
   12    13    14	5 ;     CG2R61     CG2R61     CG2R61
   12    13    35	5 ;     CG2R61     CG2R61      HGR61
   14    13    35	5 ;     CG2R61     CG2R61      HGR61
    9    14    13	5 ;     CG2R61     CG2R61     CG2R61
    9    14    36	5 ;     CG2R61     CG2R61      HGR61
   13    14    36	5 ;     CG2R61     CG2R61      HGR61
   11    15    16	5 ;     CG2R61      OG301      CG331
   15    16    53	5 ;      OG301      CG331       HGA3
   15    16    54	5 ;      OG301      CG331       HGA3
   15    16    55	5 ;      OG301      CG331       HGA3
   53    16    54	5 ;       HGA3      CG331       HGA3
   53    16    55	5 ;       HGA3      CG331       HGA3
   54    16    55	5 ;       HGA3      CG331       HGA3
   18    17    12	5 ;      CG331      OG301     CG2R61
   17    18    56	5 ;      OG301      CG331       HGA3
   17    18    57	5 ;      OG301      CG331       HGA3
   17    18    58	5 ;      OG301      CG331       HGA3
   56    18    57	5 ;       HGA3      CG331       HGA3
   56    18    58	5 ;       HGA3      CG331       HGA3
   57    18    58	5 ;       HGA3      CG331       HGA3
    1    19    28	5 ;     CG3C50      CG301      CG321
    1    19    25	5 ;     CG3C50      CG301      CG321
    1    19    20	5 ;     CG3C50      CG301      CG321
   28    19    25	5 ;      CG321      CG301      CG321
   28    19    20	5 ;      CG321      CG301      CG321
   25    19    20	5 ;      CG321      CG301      CG321
   19    20    21	5 ;      CG301      CG321      CG311
   19    20    37	5 ;      CG301      CG321       HGA2
   19    20    38	5 ;      CG301      CG321       HGA2
   21    20    37	5 ;      CG311      CG321       HGA2
   21    20    38	5 ;      CG311      CG321       HGA2
   37    20    38	5 ;       HGA2      CG321       HGA2
   20    21    23	5 ;      CG321      CG311      CG321
   20    21    22	5 ;      CG321      CG311      CG321
   20    21    39	5 ;      CG321      CG311       HGA1
   23    21    22	5 ;      CG321      CG311      CG321
   23    21    39	5 ;      CG321      CG311       HGA1
   22    21    39	5 ;      CG321      CG311       HGA1
   24    22    21	5 ;      CG311      CG321      CG311
   24    22    40	5 ;      CG311      CG321       HGA2
   24    22    41	5 ;      CG311      CG321       HGA2
   21    22    40	5 ;      CG311      CG321       HGA2
   21    22    41	5 ;      CG311      CG321       HGA2
   40    22    41	5 ;       HGA2      CG321       HGA2
   27    23    21	5 ;      CG311      CG321      CG311
   27    23    42	5 ;      CG311      CG321       HGA2
   27    23    43	5 ;      CG311      CG321       HGA2
   21    23    42	5 ;      CG311      CG321       HGA2
   21    23    43	5 ;      CG311      CG321       HGA2
   42    23    43	5 ;       HGA2      CG321       HGA2
   25    24    26	5 ;      CG321      CG311      CG321
   25    24    22	5 ;      CG321      CG311      CG321
   25    24    44	5 ;      CG321      CG311       HGA1
   26    24    22	5 ;      CG321      CG311      CG321
   26    24    44	5 ;      CG321      CG311       HGA1
   22    24    44	5 ;      CG321      CG311       HGA1
   19    25    24	5 ;      CG301      CG321      CG311
   19    25    45	5 ;      CG301      CG321       HGA2
   19    25    46	5 ;      CG301      CG321       HGA2
   24    25    45	5 ;      CG311      CG321       HGA2
   24    25    46	5 ;      CG311      CG321       HGA2
   45    25    46	5 ;       HGA2      CG321       HGA2
   27    26    24	5 ;      CG311      CG321      CG311
   27    26    47	5 ;      CG311      CG321       HGA2
   27    26    48	5 ;      CG311      CG321       HGA2
   24    26    47	5 ;      CG311      CG321       HGA2
   24    26    48	5 ;      CG311      CG321       HGA2
   47    26    48	5 ;       HGA2      CG321       HGA2
   28    27    26	5 ;      CG321      CG311      CG321
   28    27    23	5 ;      CG321      CG311      CG321
   28    27    49	5 ;      CG321      CG311       HGA1
   26    27    23	5 ;      CG321      CG311      CG321
   26    27    49	5 ;      CG321      CG311       HGA1
   23    27    49	5 ;      CG321      CG311       HGA1
   19    28    27	5 ;      CG301      CG321      CG311
   19    28    50	5 ;      CG301      CG321       HGA2
   19    28    51	5 ;      CG301      CG321       HGA2
   27    28    50	5 ;      CG311      CG321       HGA2
   27    28    51	5 ;      CG311      CG321       HGA2
   50    28    51	5 ;       HGA2      CG321       HGA2
   30    29    31	5 ;       HGP2      NG3P3       HGP2
   30    29     4	5 ;       HGP2      NG3P3     CG3C53
   30    29    52	5 ;       HGP2      NG3P3       HGP2
   31    29     4	5 ;       HGP2      NG3P3     CG3C53
   31    29    52	5 ;       HGP2      NG3P3       HGP2
    4    29    52	5 ;     CG3C53      NG3P3       HGP2

[ dihedrals ]
;	ai	  aj	ak	  al funct			  c0			c1			  c2			c3			  c4			c5
    2     1     7     8	 9 ;      NG3P2     CG3C50     CG2R53      OG2D1
    2     1     7     5	 9 ;      NG3P2     CG3C50     CG2R53     NG2R53
    9     1     7     8	 9 ;     CG2R61     CG3C50     CG2R53      OG2D1
    9     1     7     5	 9 ;     CG2R61     CG3C50     CG2R53     NG2R53
   19     1     7     8	 9 ;      CG301     CG3C50     CG2R53      OG2D1
   19     1     7     5	 9 ;      CG301     CG3C50     CG2R53     NG2R53
    7     1     2     4	 9 ;     CG2R53     CG3C50      NG3P2     CG3C53
    7     1     2     3	 9 ;     CG2R53     CG3C50      NG3P2       HGP2
    7     1     2    32	 9 ;     CG2R53     CG3C50      NG3P2       HGP2
    9     1     2     4	 9 ;     CG2R61     CG3C50      NG3P2     CG3C53
    9     1     2     3	 9 ;     CG2R61     CG3C50      NG3P2       HGP2
    9     1     2    32	 9 ;     CG2R61     CG3C50      NG3P2       HGP2
   19     1     2     4	 9 ;      CG301     CG3C50      NG3P2     CG3C53
   19     1     2     3	 9 ;      CG301     CG3C50      NG3P2       HGP2
   19     1     2    32	 9 ;      CG301     CG3C50      NG3P2       HGP2
    7     1     9    10	 9 ;     CG2R53     CG3C50     CG2R61     CG2R61
    7     1     9    14	 9 ;     CG2R53     CG3C50     CG2R61     CG2R61
    2     1     9    10	 9 ;      NG3P2     CG3C50     CG2R61     CG2R61
    2     1     9    14	 9 ;      NG3P2     CG3C50     CG2R61     CG2R61
   19     1     9    10	 9 ;      CG301     CG3C50     CG2R61     CG2R61
   19     1     9    14	 9 ;      CG301     CG3C50     CG2R61     CG2R61
    7     1    19    28	 9 ;     CG2R53     CG3C50      CG301      CG321
    7     1    19    25	 9 ;     CG2R53     CG3C50      CG301      CG321
    7     1    19    20	 9 ;     CG2R53     CG3C50      CG301      CG321
    2     1    19    28	 9 ;      NG3P2     CG3C50      CG301      CG321
    2     1    19    25	 9 ;      NG3P2     CG3C50      CG301      CG321
    2     1    19    20	 9 ;      NG3P2     CG3C50      CG301      CG321
    9     1    19    28	 9 ;     CG2R61     CG3C50      CG301      CG321
    9     1    19    25	 9 ;     CG2R61     CG3C50      CG301      CG321
    9     1    19    20	 9 ;     CG2R61     CG3C50      CG301      CG321
    1     2     4     5	 9 ;     CG3C50      NG3P2     CG3C53     NG2R53
    1     2     4    29	 9 ;     CG3C50      NG3P2     CG3C53      NG3P3
    1     2     4    33	 9 ;     CG3C50      NG3P2     CG3C53       HGA1
    3     2     4     5	 9 ;       HGP2      NG3P2     CG3C53     NG2R53
    3     2     4    29	 9 ;       HGP2      NG3P2     CG3C53      NG3P3
    3     2     4    33	 9 ;       HGP2      NG3P2     CG3C53       HGA1
   32     2     4     5	 9 ;       HGP2      NG3P2     CG3C53     NG2R53
   32     2     4    29	 9 ;       HGP2      NG3P2     CG3C53      NG3P3
   32     2     4    33	 9 ;       HGP2      NG3P2     CG3C53       HGA1
   29     4     5     6	 9 ;      NG3P3     CG3C53     NG2R53      CG331
   29     4     5     7	 9 ;      NG3P3     CG3C53     NG2R53     CG2R53
    2     4     5     6	 9 ;      NG3P2     CG3C53     NG2R53      CG331
    2     4     5     7	 9 ;      NG3P2     CG3C53     NG2R53     CG2R53
   33     4     5     6	 9 ;       HGA1     CG3C53     NG2R53      CG331
   33     4     5     7	 9 ;       HGA1     CG3C53     NG2R53     CG2R53
    5     4    29    30	 9 ;     NG2R53     CG3C53      NG3P3       HGP2
    5     4    29    31	 9 ;     NG2R53     CG3C53      NG3P3       HGP2
    5     4    29    52	 9 ;     NG2R53     CG3C53      NG3P3       HGP2
    2     4    29    30	 9 ;      NG3P2     CG3C53      NG3P3       HGP2
    2     4    29    31	 9 ;      NG3P2     CG3C53      NG3P3       HGP2
    2     4    29    52	 9 ;      NG3P2     CG3C53      NG3P3       HGP2
   33     4    29    30	 9 ;       HGA1     CG3C53      NG3P3       HGP2
   33     4    29    31	 9 ;       HGA1     CG3C53      NG3P3       HGP2
   33     4    29    52	 9 ;       HGA1     CG3C53      NG3P3       HGP2
    7     5     6    59	 9 ;     CG2R53     NG2R53      CG331       HGA3
    7     5     6    60	 9 ;     CG2R53     NG2R53      CG331       HGA3
    7     5     6    61	 9 ;     CG2R53     NG2R53      CG331       HGA3
    4     5     6    59	 9 ;     CG3C53     NG2R53      CG331       HGA3
    4     5     6    60	 9 ;     CG3C53     NG2R53      CG331       HGA3
    4     5     6    61	 9 ;     CG3C53     NG2R53      CG331       HGA3
    6     5     7     8	 9 ;      CG331     NG2R53     CG2R53      OG2D1
    6     5     7     1	 9 ;      CG331     NG2R53     CG2R53     CG3C50
    4     5     7     8	 9 ;     CG3C53     NG2R53     CG2R53      OG2D1
    4     5     7     1	 9 ;     CG3C53     NG2R53     CG2R53     CG3C50
    1     9    10    11	 9 ;     CG3C50     CG2R61     CG2R61     CG2R61
    1     9    10    34	 9 ;     CG3C50     CG2R61     CG2R61      HGR61
   14     9    10    11	 9 ;     CG2R61     CG2R61     CG2R61     CG2R61
   14     9    10    34	 9 ;     CG2R61     CG2R61     CG2R61      HGR61
   10     9    14    13	 9 ;     CG2R61     CG2R61     CG2R61     CG2R61
   10     9    14    36	 9 ;     CG2R61     CG2R61     CG2R61      HGR61
    1     9    14    13	 9 ;     CG3C50     CG2R61     CG2R61     CG2R61
    1     9    14    36	 9 ;     CG3C50     CG2R61     CG2R61      HGR61
    9    10    11    15	 9 ;     CG2R61     CG2R61     CG2R61      OG301
    9    10    11    12	 9 ;     CG2R61     CG2R61     CG2R61     CG2R61
   34    10    11    15	 9 ;      HGR61     CG2R61     CG2R61      OG301
   34    10    11    12	 9 ;      HGR61     CG2R61     CG2R61     CG2R61
   10    11    15    16	 9 ;     CG2R61     CG2R61      OG301      CG331
   12    11    15    16	 9 ;     CG2R61     CG2R61      OG301      CG331
   15    11    12    17	 9 ;      OG301     CG2R61     CG2R61      OG301
   15    11    12    13	 9 ;      OG301     CG2R61     CG2R61     CG2R61
   10    11    12    17	 9 ;     CG2R61     CG2R61     CG2R61      OG301
   10    11    12    13	 9 ;     CG2R61     CG2R61     CG2R61     CG2R61
   11    12    17    18	 9 ;     CG2R61     CG2R61      OG301      CG331
   13    12    17    18	 9 ;     CG2R61     CG2R61      OG301      CG331
   11    12    13    14	 9 ;     CG2R61     CG2R61     CG2R61     CG2R61
   11    12    13    35	 9 ;     CG2R61     CG2R61     CG2R61      HGR61
   17    12    13    14	 9 ;      OG301     CG2R61     CG2R61     CG2R61
   17    12    13    35	 9 ;      OG301     CG2R61     CG2R61      HGR61
   12    13    14     9	 9 ;     CG2R61     CG2R61     CG2R61     CG2R61
   12    13    14    36	 9 ;     CG2R61     CG2R61     CG2R61      HGR61
   35    13    14     9	 9 ;      HGR61     CG2R61     CG2R61     CG2R61
   35    13    14    36	 9 ;      HGR61     CG2R61     CG2R61      HGR61
   11    15    16    53	 9 ;     CG2R61      OG301      CG331       HGA3
   11    15    16    54	 9 ;     CG2R61      OG301      CG331       HGA3
   11    15    16    55	 9 ;     CG2R61      OG301      CG331       HGA3
   12    17    18    56	 9 ;     CG2R61      OG301      CG331       HGA3
   12    17    18    57	 9 ;     CG2R61      OG301      CG331       HGA3
   12    17    18    58	 9 ;     CG2R61      OG301      CG331       HGA3
    1    19    28    27	 9 ;     CG3C50      CG301      CG321      CG311
    1    19    28    50	 9 ;     CG3C50      CG301      CG321       HGA2
    1    19    28    51	 9 ;     CG3C50      CG301      CG321       HGA2
   25    19    28    27	 9 ;      CG321      CG301      CG321      CG311
   25    19    28    50	 9 ;      CG321      CG301      CG321       HGA2
   25    19    28    51	 9 ;      CG321      CG301      CG321       HGA2
   20    19    28    27	 9 ;      CG321      CG301      CG321      CG311
   20    19    28    50	 9 ;      CG321      CG301      CG321       HGA2
   20    19    28    51	 9 ;      CG321      CG301      CG321       HGA2
    1    19    25    24	 9 ;     CG3C50      CG301      CG321      CG311
    1    19    25    45	 9 ;     CG3C50      CG301      CG321       HGA2
    1    19    25    46	 9 ;     CG3C50      CG301      CG321       HGA2
   28    19    25    24	 9 ;      CG321      CG301      CG321      CG311
   28    19    25    45	 9 ;      CG321      CG301      CG321       HGA2
   28    19    25    46	 9 ;      CG321      CG301      CG321       HGA2
   20    19    25    24	 9 ;      CG321      CG301      CG321      CG311
   20    19    25    45	 9 ;      CG321      CG301      CG321       HGA2
   20    19    25    46	 9 ;      CG321      CG301      CG321       HGA2
    1    19    20    21	 9 ;     CG3C50      CG301      CG321      CG311
    1    19    20    37	 9 ;     CG3C50      CG301      CG321       HGA2
    1    19    20    38	 9 ;     CG3C50      CG301      CG321       HGA2
   28    19    20    21	 9 ;      CG321      CG301      CG321      CG311
   28    19    20    37	 9 ;      CG321      CG301      CG321       HGA2
   28    19    20    38	 9 ;      CG321      CG301      CG321       HGA2
   25    19    20    21	 9 ;      CG321      CG301      CG321      CG311
   25    19    20    37	 9 ;      CG321      CG301      CG321       HGA2
   25    19    20    38	 9 ;      CG321      CG301      CG321       HGA2
   19    20    21    23	 9 ;      CG301      CG321      CG311      CG321
   19    20    21    22	 9 ;      CG301      CG321      CG311      CG321
   19    20    21    39	 9 ;      CG301      CG321      CG311       HGA1
   37    20    21    23	 9 ;       HGA2      CG321      CG311      CG321
   37    20    21    22	 9 ;       HGA2      CG321      CG311      CG321
   37    20    21    39	 9 ;       HGA2      CG321      CG311       HGA1
   38    20    21    23	 9 ;       HGA2      CG321      CG311      CG321
   38    20    21    22	 9 ;       HGA2      CG321      CG311      CG321
   38    20    21    39	 9 ;       HGA2      CG321      CG311       HGA1
   20    21    23    27	 9 ;      CG321      CG311      CG321      CG311
   20    21    23    42	 9 ;      CG321      CG311      CG321       HGA2
   20    21    23    43	 9 ;      CG321      CG311      CG321       HGA2
   22    21    23    27	 9 ;      CG321      CG311      CG321      CG311
   22    21    23    42	 9 ;      CG321      CG311      CG321       HGA2
   22    21    23    43	 9 ;      CG321      CG311      CG321       HGA2
   39    21    23    27	 9 ;       HGA1      CG311      CG321      CG311
   39    21    23    42	 9 ;       HGA1      CG311      CG321       HGA2
   39    21    23    43	 9 ;       HGA1      CG311      CG321       HGA2
   20    21    22    24	 9 ;      CG321      CG311      CG321      CG311
   20    21    22    40	 9 ;      CG321      CG311      CG321       HGA2
   20    21    22    41	 9 ;      CG321      CG311      CG321       HGA2
   23    21    22    24	 9 ;      CG321      CG311      CG321      CG311
   23    21    22    40	 9 ;      CG321      CG311      CG321       HGA2
   23    21    22    41	 9 ;      CG321      CG311      CG321       HGA2
   39    21    22    24	 9 ;       HGA1      CG311      CG321      CG311
   39    21    22    40	 9 ;       HGA1      CG311      CG321       HGA2
   39    21    22    41	 9 ;       HGA1      CG311      CG321       HGA2
   21    22    24    25	 9 ;      CG311      CG321      CG311      CG321
   21    22    24    26	 9 ;      CG311      CG321      CG311      CG321
   21    22    24    44	 9 ;      CG311      CG321      CG311       HGA1
   40    22    24    25	 9 ;       HGA2      CG321      CG311      CG321
   40    22    24    26	 9 ;       HGA2      CG321      CG311      CG321
   40    22    24    44	 9 ;       HGA2      CG321      CG311       HGA1
   41    22    24    25	 9 ;       HGA2      CG321      CG311      CG321
   41    22    24    26	 9 ;       HGA2      CG321      CG311      CG321
   41    22    24    44	 9 ;       HGA2      CG321      CG311       HGA1
   21    23    27    28	 9 ;      CG311      CG321      CG311      CG321
   21    23    27    26	 9 ;      CG311      CG321      CG311      CG321
   21    23    27    49	 9 ;      CG311      CG321      CG311       HGA1
   42    23    27    28	 9 ;       HGA2      CG321      CG311      CG321
   42    23    27    26	 9 ;       HGA2      CG321      CG311      CG321
   42    23    27    49	 9 ;       HGA2      CG321      CG311       HGA1
   43    23    27    28	 9 ;       HGA2      CG321      CG311      CG321
   43    23    27    26	 9 ;       HGA2      CG321      CG311      CG321
   43    23    27    49	 9 ;       HGA2      CG321      CG311       HGA1
   26    24    25    19	 9 ;      CG321      CG311      CG321      CG301
   26    24    25    45	 9 ;      CG321      CG311      CG321       HGA2
   26    24    25    46	 9 ;      CG321      CG311      CG321       HGA2
   22    24    25    19	 9 ;      CG321      CG311      CG321      CG301
   22    24    25    45	 9 ;      CG321      CG311      CG321       HGA2
   22    24    25    46	 9 ;      CG321      CG311      CG321       HGA2
   44    24    25    19	 9 ;       HGA1      CG311      CG321      CG301
   44    24    25    45	 9 ;       HGA1      CG311      CG321       HGA2
   44    24    25    46	 9 ;       HGA1      CG311      CG321       HGA2
   25    24    26    27	 9 ;      CG321      CG311      CG321      CG311
   25    24    26    47	 9 ;      CG321      CG311      CG321       HGA2
   25    24    26    48	 9 ;      CG321      CG311      CG321       HGA2
   22    24    26    27	 9 ;      CG321      CG311      CG321      CG311
   22    24    26    47	 9 ;      CG321      CG311      CG321       HGA2
   22    24    26    48	 9 ;      CG321      CG311      CG321       HGA2
   44    24    26    27	 9 ;       HGA1      CG311      CG321      CG311
   44    24    26    47	 9 ;       HGA1      CG311      CG321       HGA2
   44    24    26    48	 9 ;       HGA1      CG311      CG321       HGA2
   24    26    27    28	 9 ;      CG311      CG321      CG311      CG321
   24    26    27    23	 9 ;      CG311      CG321      CG311      CG321
   24    26    27    49	 9 ;      CG311      CG321      CG311       HGA1
   47    26    27    28	 9 ;       HGA2      CG321      CG311      CG321
   47    26    27    23	 9 ;       HGA2      CG321      CG311      CG321
   47    26    27    49	 9 ;       HGA2      CG321      CG311       HGA1
   48    26    27    28	 9 ;       HGA2      CG321      CG311      CG321
   48    26    27    23	 9 ;       HGA2      CG321      CG311      CG321
   48    26    27    49	 9 ;       HGA2      CG321      CG311       HGA1
   26    27    28    19	 9 ;      CG321      CG311      CG321      CG301
   26    27    28    50	 9 ;      CG321      CG311      CG321       HGA2
   26    27    28    51	 9 ;      CG321      CG311      CG321       HGA2
   23    27    28    19	 9 ;      CG321      CG311      CG321      CG301
   23    27    28    50	 9 ;      CG321      CG311      CG321       HGA2
   23    27    28    51	 9 ;      CG321      CG311      CG321       HGA2
   49    27    28    19	 9 ;       HGA1      CG311      CG321      CG301
   49    27    28    50	 9 ;       HGA1      CG311      CG321       HGA2
   49    27    28    51	 9 ;       HGA1      CG311      CG321       HGA2

[ dihedrals ]
;	ai	  aj	ak	  al funct			  c0			c1			  c2			c3
    7     1     5     8	 2

