GROup of MAchos and Cynical Suckers
   29
    1LIG     O2    1   8.328   0.056   8.722
    1LIG     C2    2   8.287   0.074   8.957
    1LIG     C3    3   8.255   0.039   8.818
    1LIG     O3    4   8.325   0.115   9.226
    1LIG     C4    5   8.559   0.146   9.201
    1LIG     C5    6   8.668   0.151   9.113
    1LIG     C6    7   8.576   0.176   9.336
    1LIG     C7    8   8.793   0.189   9.162
    1LIG     C8    9   8.702   0.213   9.385
    1LIG     C9   10   8.810   0.219   9.298
    1LIG    C10   11   8.411   0.068   9.009
    1LIG    C11   12   8.538   0.021   8.943
    1LIG    C12   13   8.423   0.110   9.152
    1LIG    C13   14   8.650   0.122   8.966
    1LIG     C1   15   8.643   0.146   9.606
    1LIG     O1   16   8.705   0.240   9.519
    1LIG     O4   17   8.132  -0.016   8.808
    1LIG    H12   18   8.130  -0.114   8.814
    1LIG     H1   19   8.210   0.106   9.018
    1LIG     H2   20   8.496   0.172   9.401
    1LIG     H3   21   8.874   0.195   9.098
    1LIG     H4   22   8.903   0.247   9.333
    1LIG     H5   23   8.566  -0.073   8.985
    1LIG     H6   24   8.521   0.012   8.838
    1LIG     H7   25   8.627   0.213   8.915
    1LIG     H8   26   8.741   0.080   8.928
    1LIG     H9   27   8.652   0.179   9.707
    1LIG    H10   28   8.689   0.050   9.594
    1LIG    H11   29   8.539   0.138   9.580
   0.00000   0.00000   0.00000
