Good gRace! Old Maple Actually Chews Slate
   59
    1LIG     C1    1  -1.411   0.393  -1.702
    1LIG     N1    2  -1.517   0.330  -1.785
    1LIG     C2    3  -1.541   0.405  -1.897
    1LIG     N2    4  -1.454   0.506  -1.909
    1LIG     C3    5  -1.356   0.493  -1.808
    1LIG     N3    6  -1.252   0.567  -1.794
    1LIG    HN1    7  -1.176   0.542  -1.731
    1LIG     C4    8  -1.249   0.689  -1.874
    1LIG     C5    9  -1.392   0.739  -1.899
    1LIG     C6   10  -1.466   0.632  -1.980
    1LIG     H1   11  -1.568   0.246  -1.763
    1LIG     C7   12  -1.480   0.477  -1.592
    1LIG     C8   13  -1.516   0.419  -1.467
    1LIG     C9   14  -1.572   0.493  -1.361
    1LIG    C10   15  -1.595   0.628  -1.385
    1LIG    C11   16  -1.564   0.688  -1.508
    1LIG    C12   17  -1.507   0.613  -1.611
    1LIG    C13   18  -1.606   0.430  -1.231
    1LIG    C14   19  -1.723   0.354  -1.216
    1LIG    C15   20  -1.757   0.297  -1.093
    1LIG    C16   21  -1.671   0.316  -0.986
    1LIG     N4   22  -1.557   0.387  -0.994
    1LIG    C17   23  -1.528   0.441  -1.115
    1LIG    HN2   24  -1.496   0.398  -0.914
    1LIG     F1   25  -1.415   0.513  -1.119
    1LIG    C18   26  -1.308   0.293  -1.655
    1LIG    C19   27  -1.318   0.155  -1.680
    1LIG    C20   28  -1.215   0.067  -1.645
    1LIG    C21   29  -1.098   0.116  -1.588
    1LIG    C22   30  -1.088   0.252  -1.559
    1LIG    C23   31  -1.191   0.339  -1.592
    1LIG      O   32  -0.987   0.044  -1.557
    1LIG    C24   33  -0.945  -0.059  -1.645
    1LIG     F2   34  -1.047  -0.121  -1.708
    1LIG     F3   35  -0.865  -0.004  -1.740
    1LIG     F4   36  -0.874  -0.150  -1.576
    1LIG     N5   37  -1.638   0.375  -1.984
    1LIG     H2   38  -1.723   0.430  -1.990
    1LIG     H3   39  -1.634   0.290  -2.039
    1LIG     H4   40  -1.619   0.415  -1.970
    1LIG     H5   41  -1.253   0.486  -1.837
    1LIG     H6   42  -1.194   0.765  -1.822
    1LIG     H7   43  -1.202   0.668  -1.968
    1LIG     H8   44  -1.441   0.754  -1.806
    1LIG     H9   45  -1.390   0.831  -1.953
    1LIG    H10   46  -1.569   0.659  -1.989
    1LIG    H11   47  -1.425   0.624  -2.078
    1LIG    H12   48  -1.499   0.319  -1.453
    1LIG    H13   49  -1.637   0.686  -1.310
    1LIG    H14   50  -1.584   0.788  -1.522
    1LIG    H15   51  -1.485   0.658  -1.701
    1LIG    H16   52  -1.785   0.339  -1.298
    1LIG    H17   53  -1.844   0.243  -1.082
    1LIG    H18   54  -1.643   0.218  -0.954
    1LIG    H19   55  -1.730   0.378  -0.923
    1LIG    H20   56  -1.403   0.119  -1.726
    1LIG    H21   57  -1.226  -0.034  -1.662
    1LIG    H22   58  -1.003   0.288  -1.511
    1LIG    H23   59  -1.181   0.439  -1.570
   0.00000   0.00000   0.00000
