Good gRace! Old Maple Actually Chews Slate
   26
    1LIG     O2    1  -1.451   0.587  -1.791
    1LIG     C1    2  -1.223   0.531  -1.746
    1LIG     C2    3  -1.337   0.622  -1.765
    1LIG     O3    4  -0.995   0.388  -1.690
    1LIG     C3    5  -1.115   0.186  -1.659
    1LIG     C4    6  -1.240   0.122  -1.659
    1LIG     C5    7  -0.997   0.112  -1.640
    1LIG     C6    8  -1.246  -0.017  -1.643
    1LIG     C7    9  -1.005  -0.026  -1.622
    1LIG     C8   10  -1.128  -0.091  -1.624
    1LIG     C9   11  -1.232   0.410  -1.689
    1LIG    C10   12  -1.353   0.343  -1.631
    1LIG    C11   13  -1.104   0.333  -1.680
    1LIG    C12   14  -1.367   0.200  -1.683
    1LIG     O1   15  -0.894  -0.101  -1.604
    1LIG     H1   16  -0.919  -0.195  -1.605
    1LIG     O4   17  -1.300   0.751  -1.753
    1LIG    H10   18  -1.291   0.782  -1.661
    1LIG     H2   19  -1.130   0.563  -1.778
    1LIG     H3   20  -0.905   0.159  -1.639
    1LIG     H4   21  -1.337  -0.066  -1.645
    1LIG     H5   22  -1.133  -0.193  -1.611
    1LIG     H6   23  -1.441   0.398  -1.658
    1LIG     H7   24  -1.343   0.340  -1.524
    1LIG     H8   25  -1.447   0.152  -1.633
    1LIG     H9   26  -1.385   0.204  -1.788
   0.00000   0.00000   0.00000
