Gravel Rubs Often Many Awfully Cauterized Sores
   47
    1LIG     C1    1  -1.500   0.346  -1.609
    1LIG     C2    2  -1.435   0.255  -1.524
    1LIG     C3    3  -1.316   0.288  -1.454
    1LIG     C4    4  -1.260   0.417  -1.470
    1LIG     C5    5  -1.331   0.508  -1.551
    1LIG     F1    6  -1.284   0.633  -1.564
    1LIG     C6    7  -1.446   0.475  -1.621
    1LIG     C7    8  -1.622   0.309  -1.689
    1LIG     C8    9  -1.756   0.316  -1.613
    1LIG     C9   10  -1.870   0.289  -1.715
    1LIG      S   11  -2.026   0.280  -1.632
    1LIG     O1   12  -2.133   0.272  -1.729
    1LIG     O2   13  -2.013   0.184  -1.523
    1LIG    C10   14  -2.037   0.438  -1.550
    1LIG    C11   15  -1.915   0.456  -1.461
    1LIG    C12   16  -1.781   0.451  -1.540
    1LIG     N1   17  -1.915   0.359  -1.347
    1LIG     H1   18  -1.822   0.336  -1.311
    1LIG     H2   19  -1.970   0.393  -1.267
    1LIG     H3   20  -1.962   0.268  -1.373
    1LIG     O3   21  -1.785   0.554  -1.639
    1LIG     H4   22  -1.747   0.637  -1.602
    1LIG     O4   23  -1.275   0.189  -1.368
    1LIG    C13   24  -1.218   0.069  -1.427
    1LIG    C14   25  -1.090   0.097  -1.504
    1LIG     F2   26  -1.022  -0.017  -1.529
    1LIG     F3   27  -1.105   0.159  -1.622
    1LIG     F4   28  -1.008   0.175  -1.429
    1LIG    C15   29  -1.195  -0.040  -1.324
    1LIG     F5   30  -1.281  -0.025  -1.219
    1LIG     F6   31  -1.223  -0.161  -1.378
    1LIG     F7   32  -1.072  -0.045  -1.271
    1LIG     N2   33  -1.150   0.467  -1.399
    1LIG     H5   34  -1.145   0.428  -1.305
    1LIG     H6   35  -1.140   0.567  -1.391
    1LIG     HC   36  -1.477   0.156  -1.511
    1LIG    HC1   37  -1.495   0.548  -1.684
    1LIG    HC2   38  -1.609   0.206  -1.724
    1LIG    HC3   39  -1.628   0.375  -1.776
    1LIG    HC4   40  -1.758   0.236  -1.539
    1LIG    HC5   41  -1.872   0.369  -1.788
    1LIG    HC6   42  -1.850   0.194  -1.765
    1LIG    HC7   43  -2.127   0.442  -1.490
    1LIG    HC8   44  -2.039   0.517  -1.625
    1LIG    HC9   45  -1.922   0.556  -1.418
    1LIG   HC10   46  -1.698   0.470  -1.472
    1LIG   HC11   47  -1.291   0.031  -1.498
   0.00000   0.00000   0.00000
