; Created by cgenff_charmm2gmx.py

[ moleculetype ]
; Name			   nrexcl
LIG				 3

[ atoms ]
;	 nr		  type	resnr residue  atom   cgnr	   charge		mass  typeB    chargeB		massB
; residue	 1 LIG rtp LIG q	qsum
     1     CG2R61      1    LIG     C1      1      0.140     12.011   ;
     2     CG2R61      1    LIG     C2      2     -0.064     12.011   ;
     3     CG2R61      1    LIG     C3      3     -0.099     12.011   ;
     4     CG2R61      1    LIG     C4      4     -0.067     12.011   ;
     5     CG2R61      1    LIG     C5      5     -0.002     12.011   ;
     6     CG2R61      1    LIG     C6      6     -0.127     12.011   ;
     7      CG321      1    LIG     C7      7      0.063     12.011   ;
     8      OG301      1    LIG     O1      8     -0.341     15.999   ;
     9      CG321      1    LIG     C8      9     -0.060     12.011   ;
    10      CG301      1    LIG     C9     10      0.649     12.011   ;
    11      NG3P3      1    LIG     N1     11     -0.649     14.007   ;
    12       HGP2      1    LIG     H1     12      0.348      1.008   ;
    13       HGP2      1    LIG     H2     13      0.348      1.008   ;
    14       HGP2      1    LIG     H3     14      0.348      1.008   ;
    15      CG321      1    LIG    C10     15     -0.084     12.011   ;
    16     CG2R61      1    LIG    C11     16     -0.087     12.011   ;
    17     CG2R61      1    LIG    C12     17     -0.123     12.011   ;
    18     CG2R61      1    LIG    C13     18     -0.112     12.011   ;
    19     CG2R61      1    LIG    C14     19     -0.116     12.011   ;
    20     CG2R61      1    LIG    C15     20     -0.112     12.011   ;
    21     CG2R61      1    LIG    C16     21     -0.123     12.011   ;
    22      CG322      1    LIG    C17     22     -0.088     12.011   ;
    23       FGA1      1    LIG     F1     23     -0.205     18.998   ;
    24      CG2O1      1    LIG    C18     24      0.320     12.011   ;
    25      OG2D1      1    LIG     O2     25     -0.463     15.999   ;
    26      NG2S1      1    LIG     N2     26     -0.366     14.007   ;
    27       HGP1      1    LIG     H4     27      0.314      1.008   ;
    28      CG311      1    LIG    C19     28      0.138     12.011   ;
    29      CG331      1    LIG    C20     29     -0.265     12.011   ;
    30     CG2R61      1    LIG    C21     30     -0.081     12.011   ;
    31     CG2R61      1    LIG    C22     31     -0.121     12.011   ;
    32     CG2R61      1    LIG    C23     32     -0.105     12.011   ;
    33     CG2R66      1    LIG    C24     33      0.107     12.011   ;
    34       FGR1      1    LIG     F2     34     -0.211     18.998   ;
    35     CG2R61      1    LIG    C25     35     -0.105     12.011   ;
    36     CG2R61      1    LIG    C26     36     -0.121     12.011   ;
    37      NG301      1    LIG     N3     37     -0.228     14.007   ;
    38      CG331      1    LIG    C27     38     -0.103     12.011   ;
    39      SG3O2      1    LIG      S     39      0.397     32.060   ;
    40      OG2P1      1    LIG     O3     40     -0.388     15.999   ;
    41      OG2P1      1    LIG     O4     41     -0.388     15.999   ;
    42      CG331      1    LIG    C28     42      0.036     12.011   ;
    43      HGR61      1    LIG     HC     43      0.116      1.008   ;
    44      HGR61      1    LIG    HC1     44      0.116      1.008   ;
    45      HGR61      1    LIG    HC2     45      0.116      1.008   ;
    46       HGA2      1    LIG    HC3     46      0.090      1.008   ;
    47       HGA2      1    LIG    HC4     47      0.090      1.008   ;
    48       HGA2      1    LIG    HC5     48      0.090      1.008   ;
    49       HGA2      1    LIG    HC6     49      0.090      1.008   ;
    50       HGA2      1    LIG    HC7     50      0.090      1.008   ;
    51       HGA2      1    LIG    HC8     51      0.090      1.008   ;
    52      HGR61      1    LIG    HC9     52      0.116      1.008   ;
    53      HGR61      1    LIG   HC10     53      0.116      1.008   ;
    54      HGR61      1    LIG   HC11     54      0.116      1.008   ;
    55      HGR61      1    LIG   HC12     55      0.116      1.008   ;
    56      HGR61      1    LIG   HC13     56      0.116      1.008   ;
    57       HGA6      1    LIG   HC14     57      0.119      1.008   ;
    58       HGA6      1    LIG   HC15     58      0.119      1.008   ;
    59       HGA1      1    LIG   HC16     59      0.090      1.008   ;
    60       HGA3      1    LIG   HC17     60      0.090      1.008   ;
    61       HGA3      1    LIG   HC18     61      0.090      1.008   ;
    62       HGA3      1    LIG   HC19     62      0.090      1.008   ;
    63      HGR61      1    LIG   HC20     63      0.116      1.008   ;
    64      HGR62      1    LIG   HC21     64      0.179      1.008   ;
    65      HGR62      1    LIG   HC22     65      0.179      1.008   ;
    66      HGR61      1    LIG   HC23     66      0.116      1.008   ;
    67       HGA3      1    LIG   HC24     67      0.090      1.008   ;
    68       HGA3      1    LIG   HC25     68      0.090      1.008   ;
    69       HGA3      1    LIG   HC26     69      0.090      1.008   ;
    70       HGA3      1    LIG   HC27     70      0.090      1.008   ;
    71       HGA3      1    LIG   HC28     71      0.090      1.008   ;
    72       HGA3      1    LIG   HC29     72      0.090      1.008   ;

[ bonds ]
;	ai	  aj funct			  c0			c1			  c2			c3
    1     2	 1 ;      CG2R61     CG2R61
    1     6	 1 ;      CG2R61     CG2R61
    1    37	 1 ;      CG2R61      NG301
    2     3	 1 ;      CG2R61     CG2R61
    2    43	 1 ;      CG2R61      HGR61
    3     4	 1 ;      CG2R61     CG2R61
    3    24	 1 ;      CG2R61      CG2O1
    4     5	 1 ;      CG2R61     CG2R61
    4    44	 1 ;      CG2R61      HGR61
    5     7	 1 ;      CG2R61      CG321
    5     6	 1 ;      CG2R61     CG2R61
    6    45	 1 ;      CG2R61      HGR61
    7     8	 1 ;       CG321      OG301
    7    46	 1 ;       CG321       HGA2
    7    47	 1 ;       CG321       HGA2
    8     9	 1 ;       OG301      CG321
    9    10	 1 ;       CG321      CG301
    9    48	 1 ;       CG321       HGA2
    9    49	 1 ;       CG321       HGA2
   10    22	 1 ;       CG301      CG322
   10    11	 1 ;       CG301      NG3P3
   10    15	 1 ;       CG301      CG321
   11    13	 1 ;       NG3P3       HGP2
   11    14	 1 ;       NG3P3       HGP2
   11    12	 1 ;       NG3P3       HGP2
   15    16	 1 ;       CG321     CG2R61
   15    50	 1 ;       CG321       HGA2
   15    51	 1 ;       CG321       HGA2
   16    17	 1 ;      CG2R61     CG2R61
   16    21	 1 ;      CG2R61     CG2R61
   17    18	 1 ;      CG2R61     CG2R61
   17    52	 1 ;      CG2R61      HGR61
   18    19	 1 ;      CG2R61     CG2R61
   18    53	 1 ;      CG2R61      HGR61
   19    20	 1 ;      CG2R61     CG2R61
   19    54	 1 ;      CG2R61      HGR61
   20    21	 1 ;      CG2R61     CG2R61
   20    55	 1 ;      CG2R61      HGR61
   21    56	 1 ;      CG2R61      HGR61
   22    23	 1 ;       CG322       FGA1
   22    57	 1 ;       CG322       HGA6
   22    58	 1 ;       CG322       HGA6
   24    25	 1 ;       CG2O1      OG2D1
   24    26	 1 ;       CG2O1      NG2S1
   26    28	 1 ;       NG2S1      CG311
   26    27	 1 ;       NG2S1       HGP1
   28    30	 1 ;       CG311     CG2R61
   28    29	 1 ;       CG311      CG331
   28    59	 1 ;       CG311       HGA1
   29    60	 1 ;       CG331       HGA3
   29    61	 1 ;       CG331       HGA3
   29    62	 1 ;       CG331       HGA3
   30    36	 1 ;      CG2R61     CG2R61
   30    31	 1 ;      CG2R61     CG2R61
   31    32	 1 ;      CG2R61     CG2R61
   31    63	 1 ;      CG2R61      HGR61
   32    33	 1 ;      CG2R61     CG2R66
   32    64	 1 ;      CG2R61      HGR62
   33    35	 1 ;      CG2R66     CG2R61
   33    34	 1 ;      CG2R66       FGR1
   35    36	 1 ;      CG2R61     CG2R61
   35    65	 1 ;      CG2R61      HGR62
   36    66	 1 ;      CG2R61      HGR61
   37    38	 1 ;       NG301      CG331
   37    39	 1 ;       NG301      SG3O2
   38    67	 1 ;       CG331       HGA3
   38    68	 1 ;       CG331       HGA3
   38    69	 1 ;       CG331       HGA3
   39    41	 1 ;       SG3O2      OG2P1
   39    42	 1 ;       SG3O2      CG331
   39    40	 1 ;       SG3O2      OG2P1
   42    70	 1 ;       CG331       HGA3
   42    71	 1 ;       CG331       HGA3
   42    72	 1 ;       CG331       HGA3

[ pairs ]
;	ai	  aj funct			  c0			c1			  c2			c3
    1     4	 1
    1    24	 1
    1     7	 1
    1    67	 1
    1    68	 1
    1    69	 1
    1    41	 1
    1    42	 1
    1    40	 1
    2     5	 1
    2    45	 1
    2    38	 1
    2    39	 1
    2    44	 1
    2    25	 1
    2    26	 1
    3     6	 1
    3    37	 1
    3     7	 1
    3    28	 1
    3    27	 1
    4    43	 1
    4    25	 1
    4    26	 1
    4     8	 1
    4    46	 1
    4    47	 1
    4    45	 1
    5    37	 1
    5    24	 1
    5     9	 1
    6    43	 1
    6    38	 1
    6    39	 1
    6    44	 1
    6     8	 1
    6    46	 1
    6    47	 1
    7    44	 1
    7    45	 1
    7    10	 1
    7    48	 1
    7    49	 1
    8    22	 1
    8    11	 1
    8    15	 1
    9    46	 1
    9    47	 1
    9    23	 1
    9    57	 1
    9    58	 1
    9    13	 1
    9    14	 1
    9    12	 1
    9    16	 1
    9    50	 1
    9    51	 1
   10    17	 1
   10    21	 1
   11    48	 1
   11    49	 1
   11    23	 1
   11    57	 1
   11    58	 1
   11    16	 1
   11    50	 1
   11    51	 1
   12    22	 1
   12    15	 1
   13    22	 1
   13    15	 1
   14    22	 1
   14    15	 1
   15    48	 1
   15    49	 1
   15    23	 1
   15    57	 1
   15    58	 1
   15    18	 1
   15    52	 1
   15    20	 1
   15    56	 1
   16    22	 1
   16    19	 1
   16    53	 1
   16    55	 1
   17    50	 1
   17    51	 1
   17    20	 1
   17    56	 1
   17    54	 1
   18    21	 1
   18    55	 1
   19    52	 1
   19    56	 1
   20    53	 1
   21    50	 1
   21    51	 1
   21    52	 1
   21    54	 1
   22    48	 1
   22    49	 1
   22    50	 1
   22    51	 1
   24    43	 1
   24    44	 1
   24    30	 1
   24    29	 1
   24    59	 1
   25    28	 1
   25    27	 1
   26    36	 1
   26    31	 1
   26    60	 1
   26    61	 1
   26    62	 1
   27    30	 1
   27    29	 1
   27    59	 1
   28    35	 1
   28    66	 1
   28    32	 1
   28    63	 1
   29    36	 1
   29    31	 1
   30    60	 1
   30    61	 1
   30    62	 1
   30    33	 1
   30    64	 1
   30    65	 1
   31    59	 1
   31    35	 1
   31    66	 1
   31    34	 1
   32    36	 1
   32    65	 1
   33    63	 1
   33    66	 1
   34    64	 1
   34    36	 1
   34    65	 1
   35    64	 1
   36    59	 1
   36    63	 1
   37    43	 1
   37    45	 1
   37    70	 1
   37    71	 1
   37    72	 1
   38    41	 1
   38    42	 1
   38    40	 1
   39    67	 1
   39    68	 1
   39    69	 1
   40    70	 1
   40    71	 1
   40    72	 1
   41    70	 1
   41    71	 1
   41    72	 1
   52    53	 1
   53    54	 1
   54    55	 1
   55    56	 1
   59    60	 1
   59    61	 1
   59    62	 1
   63    64	 1
   65    66	 1

[ angles ]
;	ai	  aj	ak funct			c0			  c1			c2			  c3
    2     1     6	5 ;     CG2R61     CG2R61     CG2R61
    2     1    37	5 ;     CG2R61     CG2R61      NG301
    6     1    37	5 ;     CG2R61     CG2R61      NG301
    3     2     1	5 ;     CG2R61     CG2R61     CG2R61
    3     2    43	5 ;     CG2R61     CG2R61      HGR61
    1     2    43	5 ;     CG2R61     CG2R61      HGR61
    4     3    24	5 ;     CG2R61     CG2R61      CG2O1
    4     3     2	5 ;     CG2R61     CG2R61     CG2R61
   24     3     2	5 ;      CG2O1     CG2R61     CG2R61
    3     4     5	5 ;     CG2R61     CG2R61     CG2R61
    3     4    44	5 ;     CG2R61     CG2R61      HGR61
    5     4    44	5 ;     CG2R61     CG2R61      HGR61
    4     5     7	5 ;     CG2R61     CG2R61      CG321
    4     5     6	5 ;     CG2R61     CG2R61     CG2R61
    7     5     6	5 ;      CG321     CG2R61     CG2R61
    5     6     1	5 ;     CG2R61     CG2R61     CG2R61
    5     6    45	5 ;     CG2R61     CG2R61      HGR61
    1     6    45	5 ;     CG2R61     CG2R61      HGR61
    5     7     8	5 ;     CG2R61      CG321      OG301
    5     7    46	5 ;     CG2R61      CG321       HGA2
    5     7    47	5 ;     CG2R61      CG321       HGA2
    8     7    46	5 ;      OG301      CG321       HGA2
    8     7    47	5 ;      OG301      CG321       HGA2
   46     7    47	5 ;       HGA2      CG321       HGA2
    7     8     9	5 ;      CG321      OG301      CG321
    8     9    10	5 ;      OG301      CG321      CG301
    8     9    48	5 ;      OG301      CG321       HGA2
    8     9    49	5 ;      OG301      CG321       HGA2
   10     9    48	5 ;      CG301      CG321       HGA2
   10     9    49	5 ;      CG301      CG321       HGA2
   48     9    49	5 ;       HGA2      CG321       HGA2
    9    10    22	5 ;      CG321      CG301      CG322
    9    10    11	5 ;      CG321      CG301      NG3P3
    9    10    15	5 ;      CG321      CG301      CG321
   22    10    11	5 ;      CG322      CG301      NG3P3
   22    10    15	5 ;      CG322      CG301      CG321
   11    10    15	5 ;      NG3P3      CG301      CG321
   13    11    10	5 ;       HGP2      NG3P3      CG301
   13    11    14	5 ;       HGP2      NG3P3       HGP2
   13    11    12	5 ;       HGP2      NG3P3       HGP2
   10    11    14	5 ;      CG301      NG3P3       HGP2
   10    11    12	5 ;      CG301      NG3P3       HGP2
   14    11    12	5 ;       HGP2      NG3P3       HGP2
   10    15    16	5 ;      CG301      CG321     CG2R61
   10    15    50	5 ;      CG301      CG321       HGA2
   10    15    51	5 ;      CG301      CG321       HGA2
   16    15    50	5 ;     CG2R61      CG321       HGA2
   16    15    51	5 ;     CG2R61      CG321       HGA2
   50    15    51	5 ;       HGA2      CG321       HGA2
   17    16    21	5 ;     CG2R61     CG2R61     CG2R61
   17    16    15	5 ;     CG2R61     CG2R61      CG321
   21    16    15	5 ;     CG2R61     CG2R61      CG321
   18    17    16	5 ;     CG2R61     CG2R61     CG2R61
   18    17    52	5 ;     CG2R61     CG2R61      HGR61
   16    17    52	5 ;     CG2R61     CG2R61      HGR61
   19    18    17	5 ;     CG2R61     CG2R61     CG2R61
   19    18    53	5 ;     CG2R61     CG2R61      HGR61
   17    18    53	5 ;     CG2R61     CG2R61      HGR61
   18    19    20	5 ;     CG2R61     CG2R61     CG2R61
   18    19    54	5 ;     CG2R61     CG2R61      HGR61
   20    19    54	5 ;     CG2R61     CG2R61      HGR61
   19    20    21	5 ;     CG2R61     CG2R61     CG2R61
   19    20    55	5 ;     CG2R61     CG2R61      HGR61
   21    20    55	5 ;     CG2R61     CG2R61      HGR61
   20    21    16	5 ;     CG2R61     CG2R61     CG2R61
   20    21    56	5 ;     CG2R61     CG2R61      HGR61
   16    21    56	5 ;     CG2R61     CG2R61      HGR61
   10    22    23	5 ;      CG301      CG322       FGA1
   10    22    57	5 ;      CG301      CG322       HGA6
   10    22    58	5 ;      CG301      CG322       HGA6
   23    22    57	5 ;       FGA1      CG322       HGA6
   23    22    58	5 ;       FGA1      CG322       HGA6
   57    22    58	5 ;       HGA6      CG322       HGA6
   25    24     3	5 ;      OG2D1      CG2O1     CG2R61
   25    24    26	5 ;      OG2D1      CG2O1      NG2S1
    3    24    26	5 ;     CG2R61      CG2O1      NG2S1
   24    26    28	5 ;      CG2O1      NG2S1      CG311
   24    26    27	5 ;      CG2O1      NG2S1       HGP1
   28    26    27	5 ;      CG311      NG2S1       HGP1
   26    28    30	5 ;      NG2S1      CG311     CG2R61
   26    28    29	5 ;      NG2S1      CG311      CG331
   26    28    59	5 ;      NG2S1      CG311       HGA1
   30    28    29	5 ;     CG2R61      CG311      CG331
   30    28    59	5 ;     CG2R61      CG311       HGA1
   29    28    59	5 ;      CG331      CG311       HGA1
   28    29    60	5 ;      CG311      CG331       HGA3
   28    29    61	5 ;      CG311      CG331       HGA3
   28    29    62	5 ;      CG311      CG331       HGA3
   60    29    61	5 ;       HGA3      CG331       HGA3
   60    29    62	5 ;       HGA3      CG331       HGA3
   61    29    62	5 ;       HGA3      CG331       HGA3
   36    30    28	5 ;     CG2R61     CG2R61      CG311
   36    30    31	5 ;     CG2R61     CG2R61     CG2R61
   28    30    31	5 ;      CG311     CG2R61     CG2R61
   30    31    32	5 ;     CG2R61     CG2R61     CG2R61
   30    31    63	5 ;     CG2R61     CG2R61      HGR61
   32    31    63	5 ;     CG2R61     CG2R61      HGR61
   33    32    31	5 ;     CG2R66     CG2R61     CG2R61
   33    32    64	5 ;     CG2R66     CG2R61      HGR62
   31    32    64	5 ;     CG2R61     CG2R61      HGR62
   35    33    34	5 ;     CG2R61     CG2R66       FGR1
   35    33    32	5 ;     CG2R61     CG2R66     CG2R61
   34    33    32	5 ;       FGR1     CG2R66     CG2R61
   36    35    33	5 ;     CG2R61     CG2R61     CG2R66
   36    35    65	5 ;     CG2R61     CG2R61      HGR62
   33    35    65	5 ;     CG2R66     CG2R61      HGR62
   35    36    30	5 ;     CG2R61     CG2R61     CG2R61
   35    36    66	5 ;     CG2R61     CG2R61      HGR61
   30    36    66	5 ;     CG2R61     CG2R61      HGR61
   38    37     1	5 ;      CG331      NG301     CG2R61
   38    37    39	5 ;      CG331      NG301      SG3O2
    1    37    39	5 ;     CG2R61      NG301      SG3O2
   37    38    67	5 ;      NG301      CG331       HGA3
   37    38    68	5 ;      NG301      CG331       HGA3
   37    38    69	5 ;      NG301      CG331       HGA3
   67    38    68	5 ;       HGA3      CG331       HGA3
   67    38    69	5 ;       HGA3      CG331       HGA3
   68    38    69	5 ;       HGA3      CG331       HGA3
   37    39    41	5 ;      NG301      SG3O2      OG2P1
   37    39    42	5 ;      NG301      SG3O2      CG331
   37    39    40	5 ;      NG301      SG3O2      OG2P1
   41    39    42	5 ;      OG2P1      SG3O2      CG331
   41    39    40	5 ;      OG2P1      SG3O2      OG2P1
   42    39    40	5 ;      CG331      SG3O2      OG2P1
   39    42    70	5 ;      SG3O2      CG331       HGA3
   39    42    71	5 ;      SG3O2      CG331       HGA3
   39    42    72	5 ;      SG3O2      CG331       HGA3
   70    42    71	5 ;       HGA3      CG331       HGA3
   70    42    72	5 ;       HGA3      CG331       HGA3
   71    42    72	5 ;       HGA3      CG331       HGA3

[ dihedrals ]
;	ai	  aj	ak	  al funct			  c0			c1			  c2			c3			  c4			c5
    6     1     2     3	 9 ;     CG2R61     CG2R61     CG2R61     CG2R61
    6     1     2    43	 9 ;     CG2R61     CG2R61     CG2R61      HGR61
   37     1     2     3	 9 ;      NG301     CG2R61     CG2R61     CG2R61
   37     1     2    43	 9 ;      NG301     CG2R61     CG2R61      HGR61
    2     1     6     5	 9 ;     CG2R61     CG2R61     CG2R61     CG2R61
    2     1     6    45	 9 ;     CG2R61     CG2R61     CG2R61      HGR61
   37     1     6     5	 9 ;      NG301     CG2R61     CG2R61     CG2R61
   37     1     6    45	 9 ;      NG301     CG2R61     CG2R61      HGR61
    2     1    37    38	 9 ;     CG2R61     CG2R61      NG301      CG331
    2     1    37    39	 9 ;     CG2R61     CG2R61      NG301      SG3O2
    6     1    37    38	 9 ;     CG2R61     CG2R61      NG301      CG331
    6     1    37    39	 9 ;     CG2R61     CG2R61      NG301      SG3O2
    1     2     3     4	 9 ;     CG2R61     CG2R61     CG2R61     CG2R61
    1     2     3    24	 9 ;     CG2R61     CG2R61     CG2R61      CG2O1
   43     2     3     4	 9 ;      HGR61     CG2R61     CG2R61     CG2R61
   43     2     3    24	 9 ;      HGR61     CG2R61     CG2R61      CG2O1
   24     3     4     5	 9 ;      CG2O1     CG2R61     CG2R61     CG2R61
   24     3     4    44	 9 ;      CG2O1     CG2R61     CG2R61      HGR61
    2     3     4     5	 9 ;     CG2R61     CG2R61     CG2R61     CG2R61
    2     3     4    44	 9 ;     CG2R61     CG2R61     CG2R61      HGR61
    4     3    24    25	 9 ;     CG2R61     CG2R61      CG2O1      OG2D1
    4     3    24    26	 9 ;     CG2R61     CG2R61      CG2O1      NG2S1
    2     3    24    25	 9 ;     CG2R61     CG2R61      CG2O1      OG2D1
    2     3    24    26	 9 ;     CG2R61     CG2R61      CG2O1      NG2S1
    3     4     5     7	 9 ;     CG2R61     CG2R61     CG2R61      CG321
    3     4     5     6	 9 ;     CG2R61     CG2R61     CG2R61     CG2R61
   44     4     5     7	 9 ;      HGR61     CG2R61     CG2R61      CG321
   44     4     5     6	 9 ;      HGR61     CG2R61     CG2R61     CG2R61
    4     5     7     8	 9 ;     CG2R61     CG2R61      CG321      OG301
    4     5     7    46	 9 ;     CG2R61     CG2R61      CG321       HGA2
    4     5     7    47	 9 ;     CG2R61     CG2R61      CG321       HGA2
    6     5     7     8	 9 ;     CG2R61     CG2R61      CG321      OG301
    6     5     7    46	 9 ;     CG2R61     CG2R61      CG321       HGA2
    6     5     7    47	 9 ;     CG2R61     CG2R61      CG321       HGA2
    4     5     6     1	 9 ;     CG2R61     CG2R61     CG2R61     CG2R61
    4     5     6    45	 9 ;     CG2R61     CG2R61     CG2R61      HGR61
    7     5     6     1	 9 ;      CG321     CG2R61     CG2R61     CG2R61
    7     5     6    45	 9 ;      CG321     CG2R61     CG2R61      HGR61
    5     7     8     9	 9 ;     CG2R61      CG321      OG301      CG321
   46     7     8     9	 9 ;       HGA2      CG321      OG301      CG321
   47     7     8     9	 9 ;       HGA2      CG321      OG301      CG321
    7     8     9    10	 9 ;      CG321      OG301      CG321      CG301
    7     8     9    48	 9 ;      CG321      OG301      CG321       HGA2
    7     8     9    49	 9 ;      CG321      OG301      CG321       HGA2
    8     9    10    22	 9 ;      OG301      CG321      CG301      CG322
    8     9    10    11	 9 ;      OG301      CG321      CG301      NG3P3
    8     9    10    15	 9 ;      OG301      CG321      CG301      CG321
   48     9    10    22	 9 ;       HGA2      CG321      CG301      CG322
   48     9    10    11	 9 ;       HGA2      CG321      CG301      NG3P3
   48     9    10    15	 9 ;       HGA2      CG321      CG301      CG321
   49     9    10    22	 9 ;       HGA2      CG321      CG301      CG322
   49     9    10    11	 9 ;       HGA2      CG321      CG301      NG3P3
   49     9    10    15	 9 ;       HGA2      CG321      CG301      CG321
    9    10    22    23	 9 ;      CG321      CG301      CG322       FGA1
    9    10    22    57	 9 ;      CG321      CG301      CG322       HGA6
    9    10    22    58	 9 ;      CG321      CG301      CG322       HGA6
   11    10    22    23	 9 ;      NG3P3      CG301      CG322       FGA1
   11    10    22    57	 9 ;      NG3P3      CG301      CG322       HGA6
   11    10    22    58	 9 ;      NG3P3      CG301      CG322       HGA6
   15    10    22    23	 9 ;      CG321      CG301      CG322       FGA1
   15    10    22    57	 9 ;      CG321      CG301      CG322       HGA6
   15    10    22    58	 9 ;      CG321      CG301      CG322       HGA6
    9    10    11    13	 9 ;      CG321      CG301      NG3P3       HGP2
    9    10    11    14	 9 ;      CG321      CG301      NG3P3       HGP2
    9    10    11    12	 9 ;      CG321      CG301      NG3P3       HGP2
   22    10    11    13	 9 ;      CG322      CG301      NG3P3       HGP2
   22    10    11    14	 9 ;      CG322      CG301      NG3P3       HGP2
   22    10    11    12	 9 ;      CG322      CG301      NG3P3       HGP2
   15    10    11    13	 9 ;      CG321      CG301      NG3P3       HGP2
   15    10    11    14	 9 ;      CG321      CG301      NG3P3       HGP2
   15    10    11    12	 9 ;      CG321      CG301      NG3P3       HGP2
    9    10    15    16	 9 ;      CG321      CG301      CG321     CG2R61
    9    10    15    50	 9 ;      CG321      CG301      CG321       HGA2
    9    10    15    51	 9 ;      CG321      CG301      CG321       HGA2
   22    10    15    16	 9 ;      CG322      CG301      CG321     CG2R61
   22    10    15    50	 9 ;      CG322      CG301      CG321       HGA2
   22    10    15    51	 9 ;      CG322      CG301      CG321       HGA2
   11    10    15    16	 9 ;      NG3P3      CG301      CG321     CG2R61
   11    10    15    50	 9 ;      NG3P3      CG301      CG321       HGA2
   11    10    15    51	 9 ;      NG3P3      CG301      CG321       HGA2
   10    15    16    17	 9 ;      CG301      CG321     CG2R61     CG2R61
   10    15    16    21	 9 ;      CG301      CG321     CG2R61     CG2R61
   50    15    16    17	 9 ;       HGA2      CG321     CG2R61     CG2R61
   50    15    16    21	 9 ;       HGA2      CG321     CG2R61     CG2R61
   51    15    16    17	 9 ;       HGA2      CG321     CG2R61     CG2R61
   51    15    16    21	 9 ;       HGA2      CG321     CG2R61     CG2R61
   21    16    17    18	 9 ;     CG2R61     CG2R61     CG2R61     CG2R61
   21    16    17    52	 9 ;     CG2R61     CG2R61     CG2R61      HGR61
   15    16    17    18	 9 ;      CG321     CG2R61     CG2R61     CG2R61
   15    16    17    52	 9 ;      CG321     CG2R61     CG2R61      HGR61
   17    16    21    20	 9 ;     CG2R61     CG2R61     CG2R61     CG2R61
   17    16    21    56	 9 ;     CG2R61     CG2R61     CG2R61      HGR61
   15    16    21    20	 9 ;      CG321     CG2R61     CG2R61     CG2R61
   15    16    21    56	 9 ;      CG321     CG2R61     CG2R61      HGR61
   16    17    18    19	 9 ;     CG2R61     CG2R61     CG2R61     CG2R61
   16    17    18    53	 9 ;     CG2R61     CG2R61     CG2R61      HGR61
   52    17    18    19	 9 ;      HGR61     CG2R61     CG2R61     CG2R61
   52    17    18    53	 9 ;      HGR61     CG2R61     CG2R61      HGR61
   17    18    19    20	 9 ;     CG2R61     CG2R61     CG2R61     CG2R61
   17    18    19    54	 9 ;     CG2R61     CG2R61     CG2R61      HGR61
   53    18    19    20	 9 ;      HGR61     CG2R61     CG2R61     CG2R61
   53    18    19    54	 9 ;      HGR61     CG2R61     CG2R61      HGR61
   18    19    20    21	 9 ;     CG2R61     CG2R61     CG2R61     CG2R61
   18    19    20    55	 9 ;     CG2R61     CG2R61     CG2R61      HGR61
   54    19    20    21	 9 ;      HGR61     CG2R61     CG2R61     CG2R61
   54    19    20    55	 9 ;      HGR61     CG2R61     CG2R61      HGR61
   19    20    21    16	 9 ;     CG2R61     CG2R61     CG2R61     CG2R61
   19    20    21    56	 9 ;     CG2R61     CG2R61     CG2R61      HGR61
   55    20    21    16	 9 ;      HGR61     CG2R61     CG2R61     CG2R61
   55    20    21    56	 9 ;      HGR61     CG2R61     CG2R61      HGR61
   25    24    26    28	 9 ;      OG2D1      CG2O1      NG2S1      CG311
   25    24    26    27	 9 ;      OG2D1      CG2O1      NG2S1       HGP1
    3    24    26    28	 9 ;     CG2R61      CG2O1      NG2S1      CG311
    3    24    26    27	 9 ;     CG2R61      CG2O1      NG2S1       HGP1
   24    26    28    30	 9 ;      CG2O1      NG2S1      CG311     CG2R61
   24    26    28    29	 9 ;      CG2O1      NG2S1      CG311      CG331
   24    26    28    59	 9 ;      CG2O1      NG2S1      CG311       HGA1
   27    26    28    30	 9 ;       HGP1      NG2S1      CG311     CG2R61
   27    26    28    29	 9 ;       HGP1      NG2S1      CG311      CG331
   27    26    28    59	 9 ;       HGP1      NG2S1      CG311       HGA1
   26    28    30    36	 9 ;      NG2S1      CG311     CG2R61     CG2R61
   26    28    30    31	 9 ;      NG2S1      CG311     CG2R61     CG2R61
   29    28    30    36	 9 ;      CG331      CG311     CG2R61     CG2R61
   29    28    30    31	 9 ;      CG331      CG311     CG2R61     CG2R61
   59    28    30    36	 9 ;       HGA1      CG311     CG2R61     CG2R61
   59    28    30    31	 9 ;       HGA1      CG311     CG2R61     CG2R61
   26    28    29    60	 9 ;      NG2S1      CG311      CG331       HGA3
   26    28    29    61	 9 ;      NG2S1      CG311      CG331       HGA3
   26    28    29    62	 9 ;      NG2S1      CG311      CG331       HGA3
   30    28    29    60	 9 ;     CG2R61      CG311      CG331       HGA3
   30    28    29    61	 9 ;     CG2R61      CG311      CG331       HGA3
   30    28    29    62	 9 ;     CG2R61      CG311      CG331       HGA3
   59    28    29    60	 9 ;       HGA1      CG311      CG331       HGA3
   59    28    29    61	 9 ;       HGA1      CG311      CG331       HGA3
   59    28    29    62	 9 ;       HGA1      CG311      CG331       HGA3
   28    30    36    35	 9 ;      CG311     CG2R61     CG2R61     CG2R61
   28    30    36    66	 9 ;      CG311     CG2R61     CG2R61      HGR61
   31    30    36    35	 9 ;     CG2R61     CG2R61     CG2R61     CG2R61
   31    30    36    66	 9 ;     CG2R61     CG2R61     CG2R61      HGR61
   36    30    31    32	 9 ;     CG2R61     CG2R61     CG2R61     CG2R61
   36    30    31    63	 9 ;     CG2R61     CG2R61     CG2R61      HGR61
   28    30    31    32	 9 ;      CG311     CG2R61     CG2R61     CG2R61
   28    30    31    63	 9 ;      CG311     CG2R61     CG2R61      HGR61
   30    31    32    33	 9 ;     CG2R61     CG2R61     CG2R61     CG2R66
   30    31    32    64	 9 ;     CG2R61     CG2R61     CG2R61      HGR62
   63    31    32    33	 9 ;      HGR61     CG2R61     CG2R61     CG2R66
   63    31    32    64	 9 ;      HGR61     CG2R61     CG2R61      HGR62
   31    32    33    35	 9 ;     CG2R61     CG2R61     CG2R66     CG2R61
   31    32    33    34	 9 ;     CG2R61     CG2R61     CG2R66       FGR1
   64    32    33    35	 9 ;      HGR62     CG2R61     CG2R66     CG2R61
   64    32    33    34	 9 ;      HGR62     CG2R61     CG2R66       FGR1
   34    33    35    36	 9 ;       FGR1     CG2R66     CG2R61     CG2R61
   34    33    35    65	 9 ;       FGR1     CG2R66     CG2R61      HGR62
   32    33    35    36	 9 ;     CG2R61     CG2R66     CG2R61     CG2R61
   32    33    35    65	 9 ;     CG2R61     CG2R66     CG2R61      HGR62
   33    35    36    30	 9 ;     CG2R66     CG2R61     CG2R61     CG2R61
   33    35    36    66	 9 ;     CG2R66     CG2R61     CG2R61      HGR61
   65    35    36    30	 9 ;      HGR62     CG2R61     CG2R61     CG2R61
   65    35    36    66	 9 ;      HGR62     CG2R61     CG2R61      HGR61
    1    37    38    67	 9 ;     CG2R61      NG301      CG331       HGA3
    1    37    38    68	 9 ;     CG2R61      NG301      CG331       HGA3
    1    37    38    69	 9 ;     CG2R61      NG301      CG331       HGA3
   39    37    38    67	 9 ;      SG3O2      NG301      CG331       HGA3
   39    37    38    68	 9 ;      SG3O2      NG301      CG331       HGA3
   39    37    38    69	 9 ;      SG3O2      NG301      CG331       HGA3
   38    37    39    41	 9 ;      CG331      NG301      SG3O2      OG2P1
   38    37    39    42	 9 ;      CG331      NG301      SG3O2      CG331
   38    37    39    40	 9 ;      CG331      NG301      SG3O2      OG2P1
    1    37    39    41	 9 ;     CG2R61      NG301      SG3O2      OG2P1
    1    37    39    42	 9 ;     CG2R61      NG301      SG3O2      CG331
    1    37    39    40	 9 ;     CG2R61      NG301      SG3O2      OG2P1
   37    39    42    70	 9 ;      NG301      SG3O2      CG331       HGA3
   37    39    42    71	 9 ;      NG301      SG3O2      CG331       HGA3
   37    39    42    72	 9 ;      NG301      SG3O2      CG331       HGA3
   41    39    42    70	 9 ;      OG2P1      SG3O2      CG331       HGA3
   41    39    42    71	 9 ;      OG2P1      SG3O2      CG331       HGA3
   41    39    42    72	 9 ;      OG2P1      SG3O2      CG331       HGA3
   40    39    42    70	 9 ;      OG2P1      SG3O2      CG331       HGA3
   40    39    42    71	 9 ;      OG2P1      SG3O2      CG331       HGA3
   40    39    42    72	 9 ;      OG2P1      SG3O2      CG331       HGA3

[ dihedrals ]
;	ai	  aj	ak	  al funct			  c0			c1			  c2			c3
   24     3    26    25	 2

