Gromacs Runs One Microsecond At Cannonball Speeds
   72
    1LIG     C1    1  -1.571   0.849  -1.602
    1LIG     C2    2  -1.442   0.833  -1.548
    1LIG     C3    3  -1.369   0.717  -1.574
    1LIG     C4    4  -1.422   0.623  -1.664
    1LIG     C5    5  -1.551   0.636  -1.716
    1LIG     C6    6  -1.624   0.751  -1.687
    1LIG     C7    7  -1.613   0.523  -1.795
    1LIG     O1    8  -1.758   0.524  -1.786
    1LIG     C8    9  -1.816   0.395  -1.812
    1LIG     C9   10  -1.916   0.361  -1.700
    1LIG     N1   11  -2.040   0.298  -1.764
    1LIG     H1   12  -2.115   0.279  -1.696
    1LIG     H2   13  -2.076   0.358  -1.839
    1LIG     H3   14  -2.014   0.207  -1.806
    1LIG    C10   15  -1.861   0.256  -1.600
    1LIG    C11   16  -1.716   0.271  -1.565
    1LIG    C12   17  -1.618   0.202  -1.638
    1LIG    C13   18  -1.483   0.214  -1.604
    1LIG    C14   19  -1.445   0.296  -1.498
    1LIG    C15   20  -1.541   0.366  -1.426
    1LIG    C16   21  -1.676   0.354  -1.459
    1LIG    C17   22  -1.963   0.490  -1.631
    1LIG     F1   23  -1.989   0.461  -1.500
    1LIG    C18   24  -1.250   0.672  -1.495
    1LIG     O2   25  -1.167   0.758  -1.464
    1LIG     N2   26  -1.236   0.538  -1.468
    1LIG     H4   27  -1.307   0.472  -1.493
    1LIG    C19   28  -1.114   0.484  -1.408
    1LIG    C20   29  -1.105   0.518  -1.259
    1LIG    C21   30  -1.104   0.334  -1.436
    1LIG    C22   31  -1.105   0.243  -1.329
    1LIG    C23   32  -1.096   0.106  -1.350
    1LIG    C24   33  -1.086   0.057  -1.480
    1LIG     F2   34  -1.077  -0.075  -1.501
    1LIG    C25   35  -1.083   0.144  -1.588
    1LIG    C26   36  -1.092   0.282  -1.566
    1LIG     N3   37  -1.655   0.961  -1.567
    1LIG    C27   38  -1.684   1.055  -1.678
    1LIG      S   39  -1.785   0.922  -1.463
    1LIG     O3   40  -1.742   0.815  -1.376
    1LIG     O4   41  -1.904   0.910  -1.545
    1LIG    C28   42  -1.798   1.070  -1.363
    1LIG     HC   43  -1.400   0.911  -1.486
    1LIG    HC1   44  -1.361   0.539  -1.694
    1LIG    HC2   45  -1.722   0.765  -1.730
    1LIG    HC3   46  -1.584   0.532  -1.900
    1LIG    HC4   47  -1.576   0.428  -1.757
    1LIG    HC5   48  -1.868   0.397  -1.908
    1LIG    HC6   49  -1.737   0.320  -1.815
    1LIG    HC7   50  -1.875   0.157  -1.644
    1LIG    HC8   51  -1.920   0.262  -1.509
    1LIG    HC9   52  -1.647   0.139  -1.720
    1LIG   HC10   53  -1.408   0.161  -1.660
    1LIG   HC11   54  -1.340   0.305  -1.471
    1LIG   HC12   55  -1.512   0.430  -1.343
    1LIG   HC13   56  -1.750   0.410  -1.404
    1LIG   HC14   57  -2.054   0.527  -1.679
    1LIG   HC15   58  -1.885   0.566  -1.637
    1LIG   HC16   59  -1.029   0.531  -1.457
    1LIG   HC17   60  -1.107   0.626  -1.247
    1LIG   HC18   61  -1.191   0.475  -1.207
    1LIG   HC19   62  -1.013   0.478  -1.217
    1LIG   HC20   63  -1.112   0.281  -1.227
    1LIG   HC21   64  -1.098   0.037  -1.267
    1LIG   HC22   65  -1.075   0.106  -1.689
    1LIG   HC23   66  -1.089   0.350  -1.650
    1LIG   HC24   67  -1.748   1.135  -1.641
    1LIG   HC25   68  -1.735   1.002  -1.758
    1LIG   HC26   69  -1.591   1.097  -1.715
    1LIG   HC27   70  -1.879   1.059  -1.291
    1LIG   HC28   71  -1.819   1.156  -1.427
    1LIG   HC29   72  -1.704   1.087  -1.310
   0.00000   0.00000   0.00000
