GROningen MAchine for Chemical Simulation
   78
    1LIG     C1    1  -1.729   0.603  -1.455
    1LIG     N1    2  -1.589   0.567  -1.492
    1LIG     C2    3  -1.562   0.504  -1.612
    1LIG     O1    4  -1.652   0.498  -1.696
    1LIG     H1    5  -1.515   0.572  -1.423
    1LIG     C3    6  -1.430   0.445  -1.638
    1LIG     C4    7  -1.377   0.357  -1.545
    1LIG     N2    8  -1.256   0.311  -1.588
    1LIG     C5    9  -1.222   0.369  -1.709
    1LIG     C6   10  -1.331   0.451  -1.745
    1LIG     C7   11  -1.108   0.354  -1.790
    1LIG     C8   12  -1.322   0.516  -1.871
    1LIG     C9   13  -1.208   0.500  -1.952
    1LIG    C10   14  -1.102   0.421  -1.911
    1LIG      S   15  -1.171   0.190  -1.502
    1LIG     O2   16  -1.202   0.063  -1.566
    1LIG     O3   17  -1.207   0.215  -1.363
    1LIG    C11   18  -0.997   0.221  -1.521
    1LIG    C12   19  -0.918   0.144  -1.415
    1LIG    C13   20  -0.905  -0.005  -1.447
    1LIG    C14   21  -0.978  -0.089  -1.344
    1LIG    C15   22  -1.773   0.535  -1.322
    1LIG    C16   23  -1.828   0.396  -1.340
    1LIG    C17   24  -1.860   0.345  -1.467
    1LIG    C18   25  -1.920   0.219  -1.478
    1LIG    C19   26  -1.948   0.144  -1.365
    1LIG    C20   27  -1.912   0.192  -1.239
    1LIG    C21   28  -1.852   0.316  -1.226
    1LIG    C22   29  -1.751   0.757  -1.455
    1LIG    C23   30  -1.697   0.826  -1.581
    1LIG     N3   31  -1.561   0.885  -1.550
    1LIG     H2   32  -1.571   0.980  -1.512
    1LIG     H3   33  -1.521   0.828  -1.474
    1LIG    C24   34  -1.465   0.887  -1.664
    1LIG    C25   35  -1.335   0.820  -1.631
    1LIG    C26   36  -1.231   0.817  -1.725
    1LIG    C27   37  -1.110   0.754  -1.695
    1LIG    C28   38  -1.093   0.696  -1.569
    1LIG    C29   39  -1.196   0.699  -1.475
    1LIG    C30   40  -1.317   0.760  -1.506
    1LIG     O4   41  -1.002   0.742  -1.778
    1LIG    C31   42  -0.885   0.816  -1.746
    1LIG     O5   43  -1.890   0.797  -1.449
    1LIG     H4   44  -1.946   0.719  -1.438
    1LIG     HC   45  -1.793   0.562  -1.533
    1LIG    HC1   46  -1.424   0.329  -1.452
    1LIG    HC2   47  -1.026   0.291  -1.758
    1LIG    HC3   48  -1.404   0.577  -1.906
    1LIG    HC4   49  -1.203   0.550  -2.048
    1LIG    HC5   50  -1.014   0.411  -1.974
    1LIG    HC6   51  -0.977   0.327  -1.510
    1LIG    HC7   52  -0.965   0.188  -1.620
    1LIG    HC8   53  -0.818   0.187  -1.408
    1LIG    HC9   54  -0.967   0.155  -1.319
    1LIG   HC10   55  -0.799  -0.032  -1.447
    1LIG   HC11   56  -0.947  -0.024  -1.546
    1LIG   HC12   57  -0.968  -0.195  -1.369
    1LIG   HC13   58  -1.084  -0.062  -1.343
    1LIG   HC14   59  -0.936  -0.071  -1.245
    1LIG   HC15   60  -1.686   0.529  -1.257
    1LIG   HC16   61  -1.849   0.597  -1.275
    1LIG   HC17   62  -1.838   0.402  -1.555
    1LIG   HC18   63  -1.946   0.181  -1.576
    1LIG   HC19   64  -1.996   0.047  -1.374
    1LIG   HC20   65  -1.932   0.132  -1.151
    1LIG   HC21   66  -1.822   0.352  -1.129
    1LIG   HC22   67  -1.700   0.799  -1.368
    1LIG   HC23   68  -1.765   0.905  -1.612
    1LIG   HC24   69  -1.687   0.753  -1.662
    1LIG   HC25   70  -1.445   0.990  -1.692
    1LIG   HC26   71  -1.510   0.836  -1.749
    1LIG   HC27   72  -1.244   0.864  -1.822
    1LIG   HC28   73  -1.000   0.648  -1.545
    1LIG   HC29   74  -1.181   0.654  -1.378
    1LIG   HC30   75  -1.397   0.761  -1.433
    1LIG   HC31   76  -0.808   0.796  -1.821
    1LIG   HC32   77  -0.848   0.786  -1.648
    1LIG   HC33   78  -0.908   0.923  -1.745
   0.00000   0.00000   0.00000
