; Created by cgenff_charmm2gmx.py

[ moleculetype ]
; Name			   nrexcl
LIG				 3

[ atoms ]
;	 nr		  type	resnr residue  atom   cgnr	   charge		mass  typeB    chargeB		massB
; residue	 1 LIG rtp LIG q	qsum
     1      CG311      1    LIG     C1      1      0.008     12.011   ;
     2      NG2S1      1    LIG     N1      2     -0.397     14.007   ;
     3      CG2O1      1    LIG     C2      3      0.600     12.011   ;
     4      OG2D1      1    LIG     O1      4     -0.474     15.999   ;
     5       HGP1      1    LIG     H1      5      0.263      1.008   ;
     6     CG2R51      1    LIG     C3      6     -1.044     12.011   ;
     7     CG2R51      1    LIG     C4      7      0.131     12.011   ;
     8     NG2R51      1    LIG     N2      8     -0.005     14.007   ;
     9     CG2RC0      1    LIG     C5      9      0.313     12.011   ;
    10     CG2RC0      1    LIG     C6     10      0.587     12.011   ;
    11     CG2R61      1    LIG     C7     11     -0.257     12.011   ;
    12     CG2R61      1    LIG     C8     12     -0.460     12.011   ;
    13     CG2R61      1    LIG     C9     13     -0.205     12.011   ;
    14     CG2R61      1    LIG    C10     14     -0.177     12.011   ;
    15      SG3O2      1    LIG      S     15      0.334     32.060   ;
    16      OG2P1      1    LIG     O2     16     -0.327     15.999   ;
    17      OG2P1      1    LIG     O3     17     -0.327     15.999   ;
    18      CG321      1    LIG    C11     18      0.242     12.011   ;
    19      CG321      1    LIG    C12     19     -0.142     12.011   ;
    20      CG321      1    LIG    C13     20     -0.171     12.011   ;
    21      CG331      1    LIG    C14     21     -0.270     12.011   ;
    22      CG321      1    LIG    C15     22     -0.111     12.011   ;
    23     CG2R61      1    LIG    C16     23     -0.019     12.011   ;
    24     CG2R61      1    LIG    C17     24     -0.123     12.011   ;
    25     CG2R61      1    LIG    C18     25     -0.112     12.011   ;
    26     CG2R61      1    LIG    C19     26     -0.116     12.011   ;
    27     CG2R61      1    LIG    C20     27     -0.112     12.011   ;
    28     CG2R61      1    LIG    C21     28     -0.123     12.011   ;
    29      CG311      1    LIG    C22     29      0.094     12.011   ;
    30      CG324      1    LIG    C23     30      0.178     12.011   ;
    31      NG3P2      1    LIG     N3     31     -0.444     14.007   ;
    32       HGP2      1    LIG     H2     32      0.348      1.008   ;
    33       HGP2      1    LIG     H3     33      0.348      1.008   ;
    34      CG324      1    LIG    C24     34      0.171     12.011   ;
    35     CG2R61      1    LIG    C25     35      0.036     12.011   ;
    36     CG2R61      1    LIG    C26     36     -0.124     12.011   ;
    37     CG2R61      1    LIG    C27     37      0.216     12.011   ;
    38     CG2R61      1    LIG    C28     38     -0.121     12.011   ;
    39     CG2R61      1    LIG    C29     39     -0.108     12.011   ;
    40     CG2R61      1    LIG    C30     40     -0.119     12.011   ;
    41      OG301      1    LIG     O4     41     -0.383     15.999   ;
    42      CG331      1    LIG    C31     42     -0.094     12.011   ;
    43      OG311      1    LIG     O5     43     -0.625     15.999   ;
    44       HGP1      1    LIG     H4     44      0.415      1.008   ;
    45       HGA1      1    LIG     HC     45      0.090      1.008   ;
    46      HGR52      1    LIG    HC1     46      0.213      1.008   ;
    47      HGR61      1    LIG    HC2     47      0.184      1.008   ;
    48      HGR61      1    LIG    HC3     48      0.197      1.008   ;
    49      HGR61      1    LIG    HC4     49      0.134      1.008   ;
    50      HGR61      1    LIG    HC5     50      0.134      1.008   ;
    51       HGA2      1    LIG    HC6     51      0.090      1.008   ;
    52       HGA2      1    LIG    HC7     52      0.090      1.008   ;
    53       HGA2      1    LIG    HC8     53      0.090      1.008   ;
    54       HGA2      1    LIG    HC9     54      0.090      1.008   ;
    55       HGA2      1    LIG   HC10     55      0.090      1.008   ;
    56       HGA2      1    LIG   HC11     56      0.090      1.008   ;
    57       HGA3      1    LIG   HC12     57      0.090      1.008   ;
    58       HGA3      1    LIG   HC13     58      0.090      1.008   ;
    59       HGA3      1    LIG   HC14     59      0.090      1.008   ;
    60       HGA2      1    LIG   HC15     60      0.090      1.008   ;
    61       HGA2      1    LIG   HC16     61      0.090      1.008   ;
    62      HGR61      1    LIG   HC17     62      0.116      1.008   ;
    63      HGR61      1    LIG   HC18     63      0.116      1.008   ;
    64      HGR61      1    LIG   HC19     64      0.116      1.008   ;
    65      HGR61      1    LIG   HC20     65      0.116      1.008   ;
    66      HGR61      1    LIG   HC21     66      0.116      1.008   ;
    67       HGA1      1    LIG   HC22     67      0.090      1.008   ;
    68       HGA2      1    LIG   HC23     68      0.090      1.008   ;
    69       HGA2      1    LIG   HC24     69      0.090      1.008   ;
    70       HGA2      1    LIG   HC25     70      0.090      1.008   ;
    71       HGA2      1    LIG   HC26     71      0.090      1.008   ;
    72      HGR61      1    LIG   HC27     72      0.116      1.008   ;
    73      HGR61      1    LIG   HC28     73      0.116      1.008   ;
    74      HGR61      1    LIG   HC29     74      0.116      1.008   ;
    75      HGR61      1    LIG   HC30     75      0.116      1.008   ;
    76       HGA3      1    LIG   HC31     76      0.090      1.008   ;
    77       HGA3      1    LIG   HC32     77      0.090      1.008   ;
    78       HGA3      1    LIG   HC33     78      0.090      1.008   ;

[ bonds ]
;	ai	  aj funct			  c0			c1			  c2			c3
    1     2	 1 ;       CG311      NG2S1
    1    29	 1 ;       CG311      CG311
    1    22	 1 ;       CG311      CG321
    1    45	 1 ;       CG311       HGA1
    2     3	 1 ;       NG2S1      CG2O1
    2     5	 1 ;       NG2S1       HGP1
    3     6	 1 ;       CG2O1     CG2R51
    3     4	 1 ;       CG2O1      OG2D1
    6    10	 1 ;      CG2R51     CG2RC0
    6     7	 1 ;      CG2R51     CG2R51
    7     8	 1 ;      CG2R51     NG2R51
    7    46	 1 ;      CG2R51      HGR52
    8     9	 1 ;      NG2R51     CG2RC0
    8    15	 1 ;      NG2R51      SG3O2
    9    11	 1 ;      CG2RC0     CG2R61
    9    10	 1 ;      CG2RC0     CG2RC0
   10    12	 1 ;      CG2RC0     CG2R61
   11    14	 1 ;      CG2R61     CG2R61
   11    47	 1 ;      CG2R61      HGR61
   12    13	 1 ;      CG2R61     CG2R61
   12    48	 1 ;      CG2R61      HGR61
   13    14	 1 ;      CG2R61     CG2R61
   13    49	 1 ;      CG2R61      HGR61
   14    50	 1 ;      CG2R61      HGR61
   15    18	 1 ;       SG3O2      CG321
   15    16	 1 ;       SG3O2      OG2P1
   15    17	 1 ;       SG3O2      OG2P1
   18    19	 1 ;       CG321      CG321
   18    51	 1 ;       CG321       HGA2
   18    52	 1 ;       CG321       HGA2
   19    20	 1 ;       CG321      CG321
   19    53	 1 ;       CG321       HGA2
   19    54	 1 ;       CG321       HGA2
   20    21	 1 ;       CG321      CG331
   20    55	 1 ;       CG321       HGA2
   20    56	 1 ;       CG321       HGA2
   21    57	 1 ;       CG331       HGA3
   21    58	 1 ;       CG331       HGA3
   21    59	 1 ;       CG331       HGA3
   22    23	 1 ;       CG321     CG2R61
   22    60	 1 ;       CG321       HGA2
   22    61	 1 ;       CG321       HGA2
   23    24	 1 ;      CG2R61     CG2R61
   23    28	 1 ;      CG2R61     CG2R61
   24    25	 1 ;      CG2R61     CG2R61
   24    62	 1 ;      CG2R61      HGR61
   25    26	 1 ;      CG2R61     CG2R61
   25    63	 1 ;      CG2R61      HGR61
   26    27	 1 ;      CG2R61     CG2R61
   26    64	 1 ;      CG2R61      HGR61
   27    28	 1 ;      CG2R61     CG2R61
   27    65	 1 ;      CG2R61      HGR61
   28    66	 1 ;      CG2R61      HGR61
   29    30	 1 ;       CG311      CG324
   29    43	 1 ;       CG311      OG311
   29    67	 1 ;       CG311       HGA1
   30    31	 1 ;       CG324      NG3P2
   30    68	 1 ;       CG324       HGA2
   30    69	 1 ;       CG324       HGA2
   31    34	 1 ;       NG3P2      CG324
   31    32	 1 ;       NG3P2       HGP2
   31    33	 1 ;       NG3P2       HGP2
   34    35	 1 ;       CG324     CG2R61
   34    70	 1 ;       CG324       HGA2
   34    71	 1 ;       CG324       HGA2
   35    36	 1 ;      CG2R61     CG2R61
   35    40	 1 ;      CG2R61     CG2R61
   36    37	 1 ;      CG2R61     CG2R61
   36    72	 1 ;      CG2R61      HGR61
   37    41	 1 ;      CG2R61      OG301
   37    38	 1 ;      CG2R61     CG2R61
   38    39	 1 ;      CG2R61     CG2R61
   38    73	 1 ;      CG2R61      HGR61
   39    40	 1 ;      CG2R61     CG2R61
   39    74	 1 ;      CG2R61      HGR61
   40    75	 1 ;      CG2R61      HGR61
   41    42	 1 ;       OG301      CG331
   42    76	 1 ;       CG331       HGA3
   42    77	 1 ;       CG331       HGA3
   42    78	 1 ;       CG331       HGA3
   43    44	 1 ;       OG311       HGP1

[ pairs ]
;	ai	  aj funct			  c0			c1			  c2			c3
    1     6	 1
    1     4	 1
    1    24	 1
    1    28	 1
    1    31	 1
    1    68	 1
    1    69	 1
    1    44	 1
    2    30	 1
    2    43	 1
    2    67	 1
    2    23	 1
    2    60	 1
    2    61	 1
    2    10	 1
    2     7	 1
    3    29	 1
    3    22	 1
    3    45	 1
    3    12	 1
    3     9	 1
    3     8	 1
    3    46	 1
    4     5	 1
    4    10	 1
    4     7	 1
    5    29	 1
    5    22	 1
    5    45	 1
    5     6	 1
    6    15	 1
    6    11	 1
    6    13	 1
    6    48	 1
    7    12	 1
    7    11	 1
    7    18	 1
    7    16	 1
    7    17	 1
    8    14	 1
    8    47	 1
    8    12	 1
    8    19	 1
    8    51	 1
    8    52	 1
    9    46	 1
    9    18	 1
    9    16	 1
    9    17	 1
    9    13	 1
    9    48	 1
    9    50	 1
   10    46	 1
   10    15	 1
   10    14	 1
   10    47	 1
   10    49	 1
   11    15	 1
   11    12	 1
   11    49	 1
   12    50	 1
   13    47	 1
   14    48	 1
   15    46	 1
   15    20	 1
   15    53	 1
   15    54	 1
   16    19	 1
   16    51	 1
   16    52	 1
   17    19	 1
   17    51	 1
   17    52	 1
   18    21	 1
   18    55	 1
   18    56	 1
   19    57	 1
   19    58	 1
   19    59	 1
   20    51	 1
   20    52	 1
   21    53	 1
   21    54	 1
   22    30	 1
   22    43	 1
   22    67	 1
   22    25	 1
   22    62	 1
   22    27	 1
   22    66	 1
   23    29	 1
   23    45	 1
   23    26	 1
   23    63	 1
   23    65	 1
   24    60	 1
   24    61	 1
   24    27	 1
   24    66	 1
   24    64	 1
   25    28	 1
   25    65	 1
   26    62	 1
   26    66	 1
   27    63	 1
   28    60	 1
   28    61	 1
   28    62	 1
   28    64	 1
   29    60	 1
   29    61	 1
   29    34	 1
   29    32	 1
   29    33	 1
   30    45	 1
   30    44	 1
   30    35	 1
   30    70	 1
   30    71	 1
   31    43	 1
   31    67	 1
   31    36	 1
   31    40	 1
   32    68	 1
   32    69	 1
   32    35	 1
   32    70	 1
   32    71	 1
   33    68	 1
   33    69	 1
   33    35	 1
   33    70	 1
   33    71	 1
   34    68	 1
   34    69	 1
   34    37	 1
   34    72	 1
   34    39	 1
   34    75	 1
   35    41	 1
   35    38	 1
   35    74	 1
   36    70	 1
   36    71	 1
   36    39	 1
   36    75	 1
   36    42	 1
   36    73	 1
   37    40	 1
   37    74	 1
   37    76	 1
   37    77	 1
   37    78	 1
   38    72	 1
   38    42	 1
   38    75	 1
   39    41	 1
   40    70	 1
   40    71	 1
   40    72	 1
   40    73	 1
   41    72	 1
   41    73	 1
   43    45	 1
   43    68	 1
   43    69	 1
   44    67	 1
   45    67	 1
   45    60	 1
   45    61	 1
   47    50	 1
   48    49	 1
   49    50	 1
   51    53	 1
   51    54	 1
   52    53	 1
   52    54	 1
   53    55	 1
   53    56	 1
   54    55	 1
   54    56	 1
   55    57	 1
   55    58	 1
   55    59	 1
   56    57	 1
   56    58	 1
   56    59	 1
   62    63	 1
   63    64	 1
   64    65	 1
   65    66	 1
   67    68	 1
   67    69	 1
   73    74	 1
   74    75	 1

[ angles ]
;	ai	  aj	ak funct			c0			  c1			c2			  c3
    2     1    29	5 ;      NG2S1      CG311      CG311
    2     1    22	5 ;      NG2S1      CG311      CG321
    2     1    45	5 ;      NG2S1      CG311       HGA1
   29     1    22	5 ;      CG311      CG311      CG321
   29     1    45	5 ;      CG311      CG311       HGA1
   22     1    45	5 ;      CG321      CG311       HGA1
    3     2     5	5 ;      CG2O1      NG2S1       HGP1
    3     2     1	5 ;      CG2O1      NG2S1      CG311
    5     2     1	5 ;       HGP1      NG2S1      CG311
    6     3     4	5 ;     CG2R51      CG2O1      OG2D1
    6     3     2	5 ;     CG2R51      CG2O1      NG2S1
    4     3     2	5 ;      OG2D1      CG2O1      NG2S1
   10     6     7	5 ;     CG2RC0     CG2R51     CG2R51
   10     6     3	5 ;     CG2RC0     CG2R51      CG2O1
    7     6     3	5 ;     CG2R51     CG2R51      CG2O1
    8     7     6	5 ;     NG2R51     CG2R51     CG2R51
    8     7    46	5 ;     NG2R51     CG2R51      HGR52
    6     7    46	5 ;     CG2R51     CG2R51      HGR52
    9     8    15	5 ;     CG2RC0     NG2R51      SG3O2
    9     8     7	5 ;     CG2RC0     NG2R51     CG2R51
   15     8     7	5 ;      SG3O2     NG2R51     CG2R51
   11     9    10	5 ;     CG2R61     CG2RC0     CG2RC0
   11     9     8	5 ;     CG2R61     CG2RC0     NG2R51
   10     9     8	5 ;     CG2RC0     CG2RC0     NG2R51
   12    10     9	5 ;     CG2R61     CG2RC0     CG2RC0
   12    10     6	5 ;     CG2R61     CG2RC0     CG2R51
    9    10     6	5 ;     CG2RC0     CG2RC0     CG2R51
   14    11     9	5 ;     CG2R61     CG2R61     CG2RC0
   14    11    47	5 ;     CG2R61     CG2R61      HGR61
    9    11    47	5 ;     CG2RC0     CG2R61      HGR61
   13    12    10	5 ;     CG2R61     CG2R61     CG2RC0
   13    12    48	5 ;     CG2R61     CG2R61      HGR61
   10    12    48	5 ;     CG2RC0     CG2R61      HGR61
   14    13    12	5 ;     CG2R61     CG2R61     CG2R61
   14    13    49	5 ;     CG2R61     CG2R61      HGR61
   12    13    49	5 ;     CG2R61     CG2R61      HGR61
   13    14    11	5 ;     CG2R61     CG2R61     CG2R61
   13    14    50	5 ;     CG2R61     CG2R61      HGR61
   11    14    50	5 ;     CG2R61     CG2R61      HGR61
   18    15     8	5 ;      CG321      SG3O2     NG2R51
   18    15    16	5 ;      CG321      SG3O2      OG2P1
   18    15    17	5 ;      CG321      SG3O2      OG2P1
    8    15    16	5 ;     NG2R51      SG3O2      OG2P1
    8    15    17	5 ;     NG2R51      SG3O2      OG2P1
   16    15    17	5 ;      OG2P1      SG3O2      OG2P1
   19    18    15	5 ;      CG321      CG321      SG3O2
   19    18    51	5 ;      CG321      CG321       HGA2
   19    18    52	5 ;      CG321      CG321       HGA2
   15    18    51	5 ;      SG3O2      CG321       HGA2
   15    18    52	5 ;      SG3O2      CG321       HGA2
   51    18    52	5 ;       HGA2      CG321       HGA2
   18    19    20	5 ;      CG321      CG321      CG321
   18    19    53	5 ;      CG321      CG321       HGA2
   18    19    54	5 ;      CG321      CG321       HGA2
   20    19    53	5 ;      CG321      CG321       HGA2
   20    19    54	5 ;      CG321      CG321       HGA2
   53    19    54	5 ;       HGA2      CG321       HGA2
   19    20    21	5 ;      CG321      CG321      CG331
   19    20    55	5 ;      CG321      CG321       HGA2
   19    20    56	5 ;      CG321      CG321       HGA2
   21    20    55	5 ;      CG331      CG321       HGA2
   21    20    56	5 ;      CG331      CG321       HGA2
   55    20    56	5 ;       HGA2      CG321       HGA2
   20    21    57	5 ;      CG321      CG331       HGA3
   20    21    58	5 ;      CG321      CG331       HGA3
   20    21    59	5 ;      CG321      CG331       HGA3
   57    21    58	5 ;       HGA3      CG331       HGA3
   57    21    59	5 ;       HGA3      CG331       HGA3
   58    21    59	5 ;       HGA3      CG331       HGA3
    1    22    23	5 ;      CG311      CG321     CG2R61
    1    22    60	5 ;      CG311      CG321       HGA2
    1    22    61	5 ;      CG311      CG321       HGA2
   23    22    60	5 ;     CG2R61      CG321       HGA2
   23    22    61	5 ;     CG2R61      CG321       HGA2
   60    22    61	5 ;       HGA2      CG321       HGA2
   22    23    24	5 ;      CG321     CG2R61     CG2R61
   22    23    28	5 ;      CG321     CG2R61     CG2R61
   24    23    28	5 ;     CG2R61     CG2R61     CG2R61
   23    24    25	5 ;     CG2R61     CG2R61     CG2R61
   23    24    62	5 ;     CG2R61     CG2R61      HGR61
   25    24    62	5 ;     CG2R61     CG2R61      HGR61
   24    25    26	5 ;     CG2R61     CG2R61     CG2R61
   24    25    63	5 ;     CG2R61     CG2R61      HGR61
   26    25    63	5 ;     CG2R61     CG2R61      HGR61
   25    26    27	5 ;     CG2R61     CG2R61     CG2R61
   25    26    64	5 ;     CG2R61     CG2R61      HGR61
   27    26    64	5 ;     CG2R61     CG2R61      HGR61
   28    27    26	5 ;     CG2R61     CG2R61     CG2R61
   28    27    65	5 ;     CG2R61     CG2R61      HGR61
   26    27    65	5 ;     CG2R61     CG2R61      HGR61
   23    28    27	5 ;     CG2R61     CG2R61     CG2R61
   23    28    66	5 ;     CG2R61     CG2R61      HGR61
   27    28    66	5 ;     CG2R61     CG2R61      HGR61
   30    29     1	5 ;      CG324      CG311      CG311
   30    29    43	5 ;      CG324      CG311      OG311
   30    29    67	5 ;      CG324      CG311       HGA1
    1    29    43	5 ;      CG311      CG311      OG311
    1    29    67	5 ;      CG311      CG311       HGA1
   43    29    67	5 ;      OG311      CG311       HGA1
   31    30    29	5 ;      NG3P2      CG324      CG311
   31    30    68	5 ;      NG3P2      CG324       HGA2
   31    30    69	5 ;      NG3P2      CG324       HGA2
   29    30    68	5 ;      CG311      CG324       HGA2
   29    30    69	5 ;      CG311      CG324       HGA2
   68    30    69	5 ;       HGA2      CG324       HGA2
   34    31    32	5 ;      CG324      NG3P2       HGP2
   34    31    33	5 ;      CG324      NG3P2       HGP2
   34    31    30	5 ;      CG324      NG3P2      CG324
   32    31    33	5 ;       HGP2      NG3P2       HGP2
   32    31    30	5 ;       HGP2      NG3P2      CG324
   33    31    30	5 ;       HGP2      NG3P2      CG324
   35    34    31	5 ;     CG2R61      CG324      NG3P2
   35    34    70	5 ;     CG2R61      CG324       HGA2
   35    34    71	5 ;     CG2R61      CG324       HGA2
   31    34    70	5 ;      NG3P2      CG324       HGA2
   31    34    71	5 ;      NG3P2      CG324       HGA2
   70    34    71	5 ;       HGA2      CG324       HGA2
   36    35    34	5 ;     CG2R61     CG2R61      CG324
   36    35    40	5 ;     CG2R61     CG2R61     CG2R61
   34    35    40	5 ;      CG324     CG2R61     CG2R61
   37    36    35	5 ;     CG2R61     CG2R61     CG2R61
   37    36    72	5 ;     CG2R61     CG2R61      HGR61
   35    36    72	5 ;     CG2R61     CG2R61      HGR61
   41    37    36	5 ;      OG301     CG2R61     CG2R61
   41    37    38	5 ;      OG301     CG2R61     CG2R61
   36    37    38	5 ;     CG2R61     CG2R61     CG2R61
   37    38    39	5 ;     CG2R61     CG2R61     CG2R61
   37    38    73	5 ;     CG2R61     CG2R61      HGR61
   39    38    73	5 ;     CG2R61     CG2R61      HGR61
   38    39    40	5 ;     CG2R61     CG2R61     CG2R61
   38    39    74	5 ;     CG2R61     CG2R61      HGR61
   40    39    74	5 ;     CG2R61     CG2R61      HGR61
   35    40    39	5 ;     CG2R61     CG2R61     CG2R61
   35    40    75	5 ;     CG2R61     CG2R61      HGR61
   39    40    75	5 ;     CG2R61     CG2R61      HGR61
   42    41    37	5 ;      CG331      OG301     CG2R61
   41    42    76	5 ;      OG301      CG331       HGA3
   41    42    77	5 ;      OG301      CG331       HGA3
   41    42    78	5 ;      OG301      CG331       HGA3
   76    42    77	5 ;       HGA3      CG331       HGA3
   76    42    78	5 ;       HGA3      CG331       HGA3
   77    42    78	5 ;       HGA3      CG331       HGA3
   29    43    44	5 ;      CG311      OG311       HGP1

[ dihedrals ]
;	ai	  aj	ak	  al funct			  c0			c1			  c2			c3			  c4			c5
   29     1     2     3	 9 ;      CG311      CG311      NG2S1      CG2O1
   29     1     2     5	 9 ;      CG311      CG311      NG2S1       HGP1
   22     1     2     3	 9 ;      CG321      CG311      NG2S1      CG2O1
   22     1     2     5	 9 ;      CG321      CG311      NG2S1       HGP1
   45     1     2     3	 9 ;       HGA1      CG311      NG2S1      CG2O1
   45     1     2     5	 9 ;       HGA1      CG311      NG2S1       HGP1
    2     1    29    30	 9 ;      NG2S1      CG311      CG311      CG324
    2     1    29    43	 9 ;      NG2S1      CG311      CG311      OG311
    2     1    29    67	 9 ;      NG2S1      CG311      CG311       HGA1
   22     1    29    30	 9 ;      CG321      CG311      CG311      CG324
   22     1    29    43	 9 ;      CG321      CG311      CG311      OG311
   22     1    29    67	 9 ;      CG321      CG311      CG311       HGA1
   45     1    29    30	 9 ;       HGA1      CG311      CG311      CG324
   45     1    29    43	 9 ;       HGA1      CG311      CG311      OG311
   45     1    29    67	 9 ;       HGA1      CG311      CG311       HGA1
    2     1    22    23	 9 ;      NG2S1      CG311      CG321     CG2R61
    2     1    22    60	 9 ;      NG2S1      CG311      CG321       HGA2
    2     1    22    61	 9 ;      NG2S1      CG311      CG321       HGA2
   29     1    22    23	 9 ;      CG311      CG311      CG321     CG2R61
   29     1    22    60	 9 ;      CG311      CG311      CG321       HGA2
   29     1    22    61	 9 ;      CG311      CG311      CG321       HGA2
   45     1    22    23	 9 ;       HGA1      CG311      CG321     CG2R61
   45     1    22    60	 9 ;       HGA1      CG311      CG321       HGA2
   45     1    22    61	 9 ;       HGA1      CG311      CG321       HGA2
    5     2     3     6	 9 ;       HGP1      NG2S1      CG2O1     CG2R51
    5     2     3     4	 9 ;       HGP1      NG2S1      CG2O1      OG2D1
    1     2     3     6	 9 ;      CG311      NG2S1      CG2O1     CG2R51
    1     2     3     4	 9 ;      CG311      NG2S1      CG2O1      OG2D1
    4     3     6    10	 9 ;      OG2D1      CG2O1     CG2R51     CG2RC0
    4     3     6     7	 9 ;      OG2D1      CG2O1     CG2R51     CG2R51
    2     3     6    10	 9 ;      NG2S1      CG2O1     CG2R51     CG2RC0
    2     3     6     7	 9 ;      NG2S1      CG2O1     CG2R51     CG2R51
    7     6    10    12	 9 ;     CG2R51     CG2R51     CG2RC0     CG2R61
    7     6    10     9	 9 ;     CG2R51     CG2R51     CG2RC0     CG2RC0
    3     6    10    12	 9 ;      CG2O1     CG2R51     CG2RC0     CG2R61
    3     6    10     9	 9 ;      CG2O1     CG2R51     CG2RC0     CG2RC0
   10     6     7     8	 9 ;     CG2RC0     CG2R51     CG2R51     NG2R51
   10     6     7    46	 9 ;     CG2RC0     CG2R51     CG2R51      HGR52
    3     6     7     8	 9 ;      CG2O1     CG2R51     CG2R51     NG2R51
    3     6     7    46	 9 ;      CG2O1     CG2R51     CG2R51      HGR52
    6     7     8     9	 9 ;     CG2R51     CG2R51     NG2R51     CG2RC0
    6     7     8    15	 9 ;     CG2R51     CG2R51     NG2R51      SG3O2
   46     7     8     9	 9 ;      HGR52     CG2R51     NG2R51     CG2RC0
   46     7     8    15	 9 ;      HGR52     CG2R51     NG2R51      SG3O2
   15     8     9    11	 9 ;      SG3O2     NG2R51     CG2RC0     CG2R61
   15     8     9    10	 9 ;      SG3O2     NG2R51     CG2RC0     CG2RC0
    7     8     9    11	 9 ;     CG2R51     NG2R51     CG2RC0     CG2R61
    7     8     9    10	 9 ;     CG2R51     NG2R51     CG2RC0     CG2RC0
    9     8    15    18	 9 ;     CG2RC0     NG2R51      SG3O2      CG321
    9     8    15    16	 9 ;     CG2RC0     NG2R51      SG3O2      OG2P1
    9     8    15    17	 9 ;     CG2RC0     NG2R51      SG3O2      OG2P1
    7     8    15    18	 9 ;     CG2R51     NG2R51      SG3O2      CG321
    7     8    15    16	 9 ;     CG2R51     NG2R51      SG3O2      OG2P1
    7     8    15    17	 9 ;     CG2R51     NG2R51      SG3O2      OG2P1
   10     9    11    14	 9 ;     CG2RC0     CG2RC0     CG2R61     CG2R61
   10     9    11    47	 9 ;     CG2RC0     CG2RC0     CG2R61      HGR61
    8     9    11    14	 9 ;     NG2R51     CG2RC0     CG2R61     CG2R61
    8     9    11    47	 9 ;     NG2R51     CG2RC0     CG2R61      HGR61
   11     9    10    12	 9 ;     CG2R61     CG2RC0     CG2RC0     CG2R61
   11     9    10     6	 9 ;     CG2R61     CG2RC0     CG2RC0     CG2R51
    8     9    10    12	 9 ;     NG2R51     CG2RC0     CG2RC0     CG2R61
    8     9    10     6	 9 ;     NG2R51     CG2RC0     CG2RC0     CG2R51
    9    10    12    13	 9 ;     CG2RC0     CG2RC0     CG2R61     CG2R61
    9    10    12    48	 9 ;     CG2RC0     CG2RC0     CG2R61      HGR61
    6    10    12    13	 9 ;     CG2R51     CG2RC0     CG2R61     CG2R61
    6    10    12    48	 9 ;     CG2R51     CG2RC0     CG2R61      HGR61
    9    11    14    13	 9 ;     CG2RC0     CG2R61     CG2R61     CG2R61
    9    11    14    50	 9 ;     CG2RC0     CG2R61     CG2R61      HGR61
   47    11    14    13	 9 ;      HGR61     CG2R61     CG2R61     CG2R61
   47    11    14    50	 9 ;      HGR61     CG2R61     CG2R61      HGR61
   10    12    13    14	 9 ;     CG2RC0     CG2R61     CG2R61     CG2R61
   10    12    13    49	 9 ;     CG2RC0     CG2R61     CG2R61      HGR61
   48    12    13    14	 9 ;      HGR61     CG2R61     CG2R61     CG2R61
   48    12    13    49	 9 ;      HGR61     CG2R61     CG2R61      HGR61
   12    13    14    11	 9 ;     CG2R61     CG2R61     CG2R61     CG2R61
   12    13    14    50	 9 ;     CG2R61     CG2R61     CG2R61      HGR61
   49    13    14    11	 9 ;      HGR61     CG2R61     CG2R61     CG2R61
   49    13    14    50	 9 ;      HGR61     CG2R61     CG2R61      HGR61
    8    15    18    19	 9 ;     NG2R51      SG3O2      CG321      CG321
    8    15    18    51	 9 ;     NG2R51      SG3O2      CG321       HGA2
    8    15    18    52	 9 ;     NG2R51      SG3O2      CG321       HGA2
   16    15    18    19	 9 ;      OG2P1      SG3O2      CG321      CG321
   16    15    18    51	 9 ;      OG2P1      SG3O2      CG321       HGA2
   16    15    18    52	 9 ;      OG2P1      SG3O2      CG321       HGA2
   17    15    18    19	 9 ;      OG2P1      SG3O2      CG321      CG321
   17    15    18    51	 9 ;      OG2P1      SG3O2      CG321       HGA2
   17    15    18    52	 9 ;      OG2P1      SG3O2      CG321       HGA2
   15    18    19    20	 9 ;      SG3O2      CG321      CG321      CG321
   15    18    19    53	 9 ;      SG3O2      CG321      CG321       HGA2
   15    18    19    54	 9 ;      SG3O2      CG321      CG321       HGA2
   51    18    19    20	 9 ;       HGA2      CG321      CG321      CG321
   51    18    19    53	 9 ;       HGA2      CG321      CG321       HGA2
   51    18    19    54	 9 ;       HGA2      CG321      CG321       HGA2
   52    18    19    20	 9 ;       HGA2      CG321      CG321      CG321
   52    18    19    53	 9 ;       HGA2      CG321      CG321       HGA2
   52    18    19    54	 9 ;       HGA2      CG321      CG321       HGA2
   18    19    20    21	 9 ;      CG321      CG321      CG321      CG331
   18    19    20    55	 9 ;      CG321      CG321      CG321       HGA2
   18    19    20    56	 9 ;      CG321      CG321      CG321       HGA2
   53    19    20    21	 9 ;       HGA2      CG321      CG321      CG331
   53    19    20    55	 9 ;       HGA2      CG321      CG321       HGA2
   53    19    20    56	 9 ;       HGA2      CG321      CG321       HGA2
   54    19    20    21	 9 ;       HGA2      CG321      CG321      CG331
   54    19    20    55	 9 ;       HGA2      CG321      CG321       HGA2
   54    19    20    56	 9 ;       HGA2      CG321      CG321       HGA2
   19    20    21    57	 9 ;      CG321      CG321      CG331       HGA3
   19    20    21    58	 9 ;      CG321      CG321      CG331       HGA3
   19    20    21    59	 9 ;      CG321      CG321      CG331       HGA3
   55    20    21    57	 9 ;       HGA2      CG321      CG331       HGA3
   55    20    21    58	 9 ;       HGA2      CG321      CG331       HGA3
   55    20    21    59	 9 ;       HGA2      CG321      CG331       HGA3
   56    20    21    57	 9 ;       HGA2      CG321      CG331       HGA3
   56    20    21    58	 9 ;       HGA2      CG321      CG331       HGA3
   56    20    21    59	 9 ;       HGA2      CG321      CG331       HGA3
    1    22    23    24	 9 ;      CG311      CG321     CG2R61     CG2R61
    1    22    23    28	 9 ;      CG311      CG321     CG2R61     CG2R61
   60    22    23    24	 9 ;       HGA2      CG321     CG2R61     CG2R61
   60    22    23    28	 9 ;       HGA2      CG321     CG2R61     CG2R61
   61    22    23    24	 9 ;       HGA2      CG321     CG2R61     CG2R61
   61    22    23    28	 9 ;       HGA2      CG321     CG2R61     CG2R61
   22    23    24    25	 9 ;      CG321     CG2R61     CG2R61     CG2R61
   22    23    24    62	 9 ;      CG321     CG2R61     CG2R61      HGR61
   28    23    24    25	 9 ;     CG2R61     CG2R61     CG2R61     CG2R61
   28    23    24    62	 9 ;     CG2R61     CG2R61     CG2R61      HGR61
   22    23    28    27	 9 ;      CG321     CG2R61     CG2R61     CG2R61
   22    23    28    66	 9 ;      CG321     CG2R61     CG2R61      HGR61
   24    23    28    27	 9 ;     CG2R61     CG2R61     CG2R61     CG2R61
   24    23    28    66	 9 ;     CG2R61     CG2R61     CG2R61      HGR61
   23    24    25    26	 9 ;     CG2R61     CG2R61     CG2R61     CG2R61
   23    24    25    63	 9 ;     CG2R61     CG2R61     CG2R61      HGR61
   62    24    25    26	 9 ;      HGR61     CG2R61     CG2R61     CG2R61
   62    24    25    63	 9 ;      HGR61     CG2R61     CG2R61      HGR61
   24    25    26    27	 9 ;     CG2R61     CG2R61     CG2R61     CG2R61
   24    25    26    64	 9 ;     CG2R61     CG2R61     CG2R61      HGR61
   63    25    26    27	 9 ;      HGR61     CG2R61     CG2R61     CG2R61
   63    25    26    64	 9 ;      HGR61     CG2R61     CG2R61      HGR61
   25    26    27    28	 9 ;     CG2R61     CG2R61     CG2R61     CG2R61
   25    26    27    65	 9 ;     CG2R61     CG2R61     CG2R61      HGR61
   64    26    27    28	 9 ;      HGR61     CG2R61     CG2R61     CG2R61
   64    26    27    65	 9 ;      HGR61     CG2R61     CG2R61      HGR61
   26    27    28    23	 9 ;     CG2R61     CG2R61     CG2R61     CG2R61
   26    27    28    66	 9 ;     CG2R61     CG2R61     CG2R61      HGR61
   65    27    28    23	 9 ;      HGR61     CG2R61     CG2R61     CG2R61
   65    27    28    66	 9 ;      HGR61     CG2R61     CG2R61      HGR61
    1    29    30    31	 9 ;      CG311      CG311      CG324      NG3P2
    1    29    30    68	 9 ;      CG311      CG311      CG324       HGA2
    1    29    30    69	 9 ;      CG311      CG311      CG324       HGA2
   43    29    30    31	 9 ;      OG311      CG311      CG324      NG3P2
   43    29    30    68	 9 ;      OG311      CG311      CG324       HGA2
   43    29    30    69	 9 ;      OG311      CG311      CG324       HGA2
   67    29    30    31	 9 ;       HGA1      CG311      CG324      NG3P2
   67    29    30    68	 9 ;       HGA1      CG311      CG324       HGA2
   67    29    30    69	 9 ;       HGA1      CG311      CG324       HGA2
   30    29    43    44	 9 ;      CG324      CG311      OG311       HGP1
    1    29    43    44	 9 ;      CG311      CG311      OG311       HGP1
   67    29    43    44	 9 ;       HGA1      CG311      OG311       HGP1
   29    30    31    34	 9 ;      CG311      CG324      NG3P2      CG324
   29    30    31    32	 9 ;      CG311      CG324      NG3P2       HGP2
   29    30    31    33	 9 ;      CG311      CG324      NG3P2       HGP2
   68    30    31    34	 9 ;       HGA2      CG324      NG3P2      CG324
   68    30    31    32	 9 ;       HGA2      CG324      NG3P2       HGP2
   68    30    31    33	 9 ;       HGA2      CG324      NG3P2       HGP2
   69    30    31    34	 9 ;       HGA2      CG324      NG3P2      CG324
   69    30    31    32	 9 ;       HGA2      CG324      NG3P2       HGP2
   69    30    31    33	 9 ;       HGA2      CG324      NG3P2       HGP2
   32    31    34    35	 9 ;       HGP2      NG3P2      CG324     CG2R61
   32    31    34    70	 9 ;       HGP2      NG3P2      CG324       HGA2
   32    31    34    71	 9 ;       HGP2      NG3P2      CG324       HGA2
   33    31    34    35	 9 ;       HGP2      NG3P2      CG324     CG2R61
   33    31    34    70	 9 ;       HGP2      NG3P2      CG324       HGA2
   33    31    34    71	 9 ;       HGP2      NG3P2      CG324       HGA2
   30    31    34    35	 9 ;      CG324      NG3P2      CG324     CG2R61
   30    31    34    70	 9 ;      CG324      NG3P2      CG324       HGA2
   30    31    34    71	 9 ;      CG324      NG3P2      CG324       HGA2
   31    34    35    36	 9 ;      NG3P2      CG324     CG2R61     CG2R61
   31    34    35    40	 9 ;      NG3P2      CG324     CG2R61     CG2R61
   70    34    35    36	 9 ;       HGA2      CG324     CG2R61     CG2R61
   70    34    35    40	 9 ;       HGA2      CG324     CG2R61     CG2R61
   71    34    35    36	 9 ;       HGA2      CG324     CG2R61     CG2R61
   71    34    35    40	 9 ;       HGA2      CG324     CG2R61     CG2R61
   34    35    36    37	 9 ;      CG324     CG2R61     CG2R61     CG2R61
   34    35    36    72	 9 ;      CG324     CG2R61     CG2R61      HGR61
   40    35    36    37	 9 ;     CG2R61     CG2R61     CG2R61     CG2R61
   40    35    36    72	 9 ;     CG2R61     CG2R61     CG2R61      HGR61
   36    35    40    39	 9 ;     CG2R61     CG2R61     CG2R61     CG2R61
   36    35    40    75	 9 ;     CG2R61     CG2R61     CG2R61      HGR61
   34    35    40    39	 9 ;      CG324     CG2R61     CG2R61     CG2R61
   34    35    40    75	 9 ;      CG324     CG2R61     CG2R61      HGR61
   35    36    37    41	 9 ;     CG2R61     CG2R61     CG2R61      OG301
   35    36    37    38	 9 ;     CG2R61     CG2R61     CG2R61     CG2R61
   72    36    37    41	 9 ;      HGR61     CG2R61     CG2R61      OG301
   72    36    37    38	 9 ;      HGR61     CG2R61     CG2R61     CG2R61
   36    37    41    42	 9 ;     CG2R61     CG2R61      OG301      CG331
   38    37    41    42	 9 ;     CG2R61     CG2R61      OG301      CG331
   41    37    38    39	 9 ;      OG301     CG2R61     CG2R61     CG2R61
   41    37    38    73	 9 ;      OG301     CG2R61     CG2R61      HGR61
   36    37    38    39	 9 ;     CG2R61     CG2R61     CG2R61     CG2R61
   36    37    38    73	 9 ;     CG2R61     CG2R61     CG2R61      HGR61
   37    38    39    40	 9 ;     CG2R61     CG2R61     CG2R61     CG2R61
   37    38    39    74	 9 ;     CG2R61     CG2R61     CG2R61      HGR61
   73    38    39    40	 9 ;      HGR61     CG2R61     CG2R61     CG2R61
   73    38    39    74	 9 ;      HGR61     CG2R61     CG2R61      HGR61
   38    39    40    35	 9 ;     CG2R61     CG2R61     CG2R61     CG2R61
   38    39    40    75	 9 ;     CG2R61     CG2R61     CG2R61      HGR61
   74    39    40    35	 9 ;      HGR61     CG2R61     CG2R61     CG2R61
   74    39    40    75	 9 ;      HGR61     CG2R61     CG2R61      HGR61
   37    41    42    76	 9 ;     CG2R61      OG301      CG331       HGA3
   37    41    42    77	 9 ;     CG2R61      OG301      CG331       HGA3
   37    41    42    78	 9 ;     CG2R61      OG301      CG331       HGA3

[ dihedrals ]
;	ai	  aj	ak	  al funct			  c0			c1			  c2			c3
    3     6     2     4	 2

