Gallium Rubidium Oxygen Manganese Argon Carbon Silicon
   72
    1LIG     C1    1  -1.530   0.244  -1.703
    1LIG     C2    2  -1.414   0.354  -1.697
    1LIG     C3    3  -1.304   0.348  -1.576
    1LIG     C4    4  -1.182   0.261  -1.610
    1LIG     C5    5  -1.156   0.139  -1.525
    1LIG     C6    6  -1.234   0.025  -1.549
    1LIG     C7    7  -1.210  -0.093  -1.480
    1LIG     F1    8  -1.287  -0.200  -1.506
    1LIG     C8    9  -1.108  -0.102  -1.387
    1LIG     C9   10  -1.028   0.009  -1.365
    1LIG    C10   11  -1.050   0.129  -1.434
    1LIG     F2   12  -0.927   0.001  -1.278
    1LIG     N1   13  -1.259   0.480  -1.532
    1LIG    C11   14  -1.211   0.526  -1.412
    1LIG     O1   15  -1.179   0.646  -1.408
    1LIG    C12   16  -1.198   0.442  -1.290
    1LIG     H1   17  -1.268   0.560  -1.597
    1LIG     O2   18  -1.346   0.353  -1.823
    1LIG     H2   19  -1.412   0.338  -1.893
    1LIG     N2   20  -1.672   0.299  -1.744
    1LIG     H3   21  -1.665   0.361  -1.827
    1LIG     H4   22  -1.726   0.218  -1.780
    1LIG    C13   23  -1.771   0.378  -1.641
    1LIG    C14   24  -1.716   0.359  -1.496
    1LIG    C15   25  -1.813   0.411  -1.388
    1LIG    C16   26  -1.953   0.350  -1.397
    1LIG    C17   27  -2.010   0.351  -1.538
    1LIG    C18   28  -1.909   0.307  -1.646
    1LIG    C19   29  -1.782   0.534  -1.676
    1LIG     N3   30  -1.683   0.623  -1.651
    1LIG     N4   31  -1.735   0.748  -1.684
    1LIG     HN   32  -1.589   0.603  -1.616
    1LIG    C20   33  -1.863   0.736  -1.734
    1LIG    C21   34  -1.894   0.603  -1.732
    1LIG    C22   35  -1.658   0.876  -1.681
    1LIG    C23   36  -1.740   0.988  -1.616
    1LIG    C24   37  -1.528   0.858  -1.599
    1LIG    C25   38  -1.614   0.923  -1.822
    1LIG    HC2   39  -1.501   0.168  -1.775
    1LIG    HC3   40  -1.538   0.197  -1.605
    1LIG     HC   41  -1.463   0.451  -1.689
    1LIG    HC1   42  -1.353   0.301  -1.491
    1LIG    HC4   43  -1.093   0.324  -1.603
    1LIG    HC5   44  -1.191   0.228  -1.714
    1LIG    HC6   45  -1.314   0.029  -1.622
    1LIG    HC7   46  -1.091  -0.194  -1.333
    1LIG    HC8   47  -0.986   0.213  -1.416
    1LIG    HC9   48  -1.159   0.503  -1.208
    1LIG   HC10   49  -1.130   0.360  -1.310
    1LIG   HC11   50  -1.296   0.403  -1.263
    1LIG   HC12   51  -1.622   0.413  -1.487
    1LIG   HC13   52  -1.698   0.253  -1.479
    1LIG   HC14   53  -1.771   0.387  -1.290
    1LIG   HC15   54  -1.821   0.519  -1.397
    1LIG   HC16   55  -2.020   0.407  -1.332
    1LIG   HC17   56  -1.949   0.247  -1.361
    1LIG   HC18   57  -2.095   0.284  -1.541
    1LIG   HC19   58  -2.044   0.452  -1.561
    1LIG   HC20   59  -1.954   0.327  -1.744
    1LIG   HC21   60  -1.893   0.199  -1.637
    1LIG   HC22   61  -1.926   0.817  -1.767
    1LIG   HC23   62  -1.985   0.558  -1.767
    1LIG   HC24   63  -1.833   1.003  -1.672
    1LIG   HC25   64  -1.764   0.962  -1.513
    1LIG   HC26   65  -1.682   1.081  -1.617
    1LIG   HC27   66  -1.552   0.825  -1.498
    1LIG   HC28   67  -1.475   0.953  -1.593
    1LIG   HC29   68  -1.464   0.784  -1.647
    1LIG   HC30   69  -1.702   0.937  -1.885
    1LIG   HC31   70  -1.549   0.848  -1.867
    1LIG   HC32   71  -1.560   1.018  -1.813
    1LIG    H39   72  -1.742   0.516  -1.776
   0.00000   0.00000   0.00000
