; Created by cgenff_charmm2gmx.py

[ moleculetype ]
; Name			   nrexcl
LIG				 3

[ atoms ]
;	 nr		  type	resnr residue  atom   cgnr	   charge		mass  typeB    chargeB		massB
; residue	 1 LIG rtp LIG q	qsum
     1     CG3C50      1    LIG     C1      1      0.952     12.011   ;
     2     NG3C51      1    LIG     N1      2     -0.942     14.007   ;
     3       HGP1      1    LIG    HN1      3      0.206      1.008   ;
     4     CG3C51      1    LIG     C2      4      0.310     12.011   ;
     5     NG3C51      1    LIG     N2      5     -1.039     14.007   ;
     6     CG3RC1      1    LIG     C3      6      0.331     12.011   ;
     7      NG311      1    LIG     N3      7     -0.859     14.007   ;
     8     HGPAM1      1    LIG    HN2      8      0.413      1.008   ;
     9      CG321      1    LIG     C4      9      0.181     12.011   ;
    10      CG312      1    LIG     C5     10      0.104     12.011   ;
    11       FGA2      1    LIG     F1     11     -0.178     18.998   ;
    12       FGA2      1    LIG     F2     12     -0.178     18.998   ;
    13      CG321      1    LIG     C6     13      0.506     12.011   ;
    14     CG2R61      1    LIG     C7     14     -0.001     12.011   ;
    15     CG2R61      1    LIG     C8     15     -0.182     12.011   ;
    16     CG2R61      1    LIG     C9     16     -0.137     12.011   ;
    17     CG2R61      1    LIG    C10     17     -0.117     12.011   ;
    18     CG2R61      1    LIG    C11     18     -0.102     12.011   ;
    19     CG2R61      1    LIG    C12     19     -0.181     12.011   ;
    20     CG2DC1      1    LIG    C13     20      0.053     12.011   ;
    21     CG2DC2      1    LIG    C14     21     -0.246     12.011   ;
    22     CG2DC2      1    LIG    C15     22     -0.181     12.011   ;
    23      CG321      1    LIG    C16     23     -0.037     12.011   ;
    24      NG311      1    LIG     N4     24     -0.466     14.007   ;
    25     CG2D1O      1    LIG    C17     25      0.321     12.011   ;
    26     HGPAM1      1    LIG    HN3     26      0.324      1.008   ;
    27       FGA1      1    LIG     F3     27     -0.107     18.998   ;
    28     CG2R61      1    LIG    C18     28     -0.004     12.011   ;
    29     CG2R61      1    LIG    C19     29     -0.178     12.011   ;
    30     CG2R61      1    LIG    C20     30     -0.108     12.011   ;
    31     CG2R61      1    LIG    C21     31      0.217     12.011   ;
    32     CG2R61      1    LIG    C22     32     -0.108     12.011   ;
    33     CG2R61      1    LIG    C23     33     -0.178     12.011   ;
    34      OG301      1    LIG      O     34     -0.272     15.999   ;
    35      CG312      1    LIG    C24     35      0.216     12.011   ;
    36       FGA2      1    LIG     F4     36     -0.160     18.998   ;
    37       FGA2      1    LIG     F5     37     -0.160     18.998   ;
    38      NG321      1    LIG     N5     38     -0.868     14.007   ;
    39     HGPAM2      1    LIG     H1     39      0.349      1.008   ;
    40     HGPAM2      1    LIG     H2     40      0.349      1.008   ;
    41       HGA1      1    LIG     H3     41      0.137      1.008   ;
    42       HGA1      1    LIG     H4     42      0.090      1.008   ;
    43       HGA2      1    LIG     H5     43      0.090      1.008   ;
    44       HGA2      1    LIG     H6     44      0.090      1.008   ;
    45       HGA2      1    LIG     H7     45      0.090      1.008   ;
    46       HGA2      1    LIG     H8     46      0.090      1.008   ;
    47      HGR61      1    LIG     H9     47      0.116      1.008   ;
    48      HGR61      1    LIG    H10     48      0.116      1.008   ;
    49      HGR61      1    LIG    H11     49      0.116      1.008   ;
    50      HGR61      1    LIG    H12     50      0.116      1.008   ;
    51       HGA4      1    LIG    H13     51      0.153      1.008   ;
    52       HGA4      1    LIG    H14     52      0.150      1.008   ;
    53       HGA2      1    LIG    H15     53      0.090      1.008   ;
    54       HGA2      1    LIG    H16     54      0.090      1.008   ;
    55      HGR61      1    LIG    H17     55      0.116      1.008   ;
    56      HGR61      1    LIG    H18     56      0.116      1.008   ;
    57      HGR61      1    LIG    H19     57      0.116      1.008   ;
    58      HGR61      1    LIG    H20     58      0.116      1.008   ;
    59       HGA7      1    LIG    H21     59      0.159      1.008   ;

[ bonds ]
;	ai	  aj funct			  c0			c1			  c2			c3
    1     6	 1 ;      CG3C50     CG3RC1
    1    28	 1 ;      CG3C50     CG2R61
    1     2	 1 ;      CG3C50     NG3C51
    1    14	 1 ;      CG3C50     CG2R61
    2     4	 1 ;      NG3C51     CG3C51
    2     3	 1 ;      NG3C51       HGP1
    4     5	 1 ;      CG3C51     NG3C51
    4    38	 1 ;      CG3C51      NG321
    4    41	 1 ;      CG3C51       HGA1
    5    13	 1 ;      NG3C51      CG321
    5     6	 1 ;      NG3C51     CG3RC1
    6     7	 1 ;      CG3RC1      NG311
    6    42	 1 ;      CG3RC1       HGA1
    7     9	 1 ;       NG311      CG321
    7     8	 1 ;       NG311     HGPAM1
    9    10	 1 ;       CG321      CG312
    9    43	 1 ;       CG321       HGA2
    9    44	 1 ;       CG321       HGA2
   10    12	 1 ;       CG312       FGA2
   10    11	 1 ;       CG312       FGA2
   10    13	 1 ;       CG312      CG321
   13    45	 1 ;       CG321       HGA2
   13    46	 1 ;       CG321       HGA2
   14    19	 1 ;      CG2R61     CG2R61
   14    15	 1 ;      CG2R61     CG2R61
   15    16	 1 ;      CG2R61     CG2R61
   15    47	 1 ;      CG2R61      HGR61
   16    17	 1 ;      CG2R61     CG2R61
   16    20	 1 ;      CG2R61     CG2DC1
   17    18	 1 ;      CG2R61     CG2R61
   17    48	 1 ;      CG2R61      HGR61
   18    19	 1 ;      CG2R61     CG2R61
   18    49	 1 ;      CG2R61      HGR61
   19    50	 1 ;      CG2R61      HGR61
   20    21	 1 ;      CG2DC1     CG2DC2
   20    25	 1 ;      CG2DC1     CG2D1O
   21    22	 1 ;      CG2DC2     CG2DC2
   21    51	 1 ;      CG2DC2       HGA4
   22    23	 1 ;      CG2DC2      CG321
   22    52	 1 ;      CG2DC2       HGA4
   23    24	 1 ;       CG321      NG311
   23    53	 1 ;       CG321       HGA2
   23    54	 1 ;       CG321       HGA2
   24    25	 1 ;       NG311     CG2D1O
   24    26	 1 ;       NG311     HGPAM1
   25    27	 1 ;      CG2D1O       FGA1
   28    33	 1 ;      CG2R61     CG2R61
   28    29	 1 ;      CG2R61     CG2R61
   29    30	 1 ;      CG2R61     CG2R61
   29    55	 1 ;      CG2R61      HGR61
   30    31	 1 ;      CG2R61     CG2R61
   30    56	 1 ;      CG2R61      HGR61
   31    32	 1 ;      CG2R61     CG2R61
   31    34	 1 ;      CG2R61      OG301
   32    33	 1 ;      CG2R61     CG2R61
   32    57	 1 ;      CG2R61      HGR61
   33    58	 1 ;      CG2R61      HGR61
   34    35	 1 ;       OG301      CG312
   35    36	 1 ;       CG312       FGA2
   35    37	 1 ;       CG312       FGA2
   35    59	 1 ;       CG312       HGA7
   38    39	 1 ;       NG321     HGPAM2
   38    40	 1 ;       NG321     HGPAM2

[ pairs ]
;	ai	  aj funct			  c0			c1			  c2			c3
    1    38	 1
    1    41	 1
    1    13	 1
    1     9	 1
    1     8	 1
    1    18	 1
    1    50	 1
    1    16	 1
    1    47	 1
    1    32	 1
    1    58	 1
    1    30	 1
    1    55	 1
    2     7	 1
    2    42	 1
    2    33	 1
    2    29	 1
    2    19	 1
    2    15	 1
    2    13	 1
    2    39	 1
    2    40	 1
    3     6	 1
    3    28	 1
    3    14	 1
    3     5	 1
    3    38	 1
    3    41	 1
    4    28	 1
    4    14	 1
    4    10	 1
    4    45	 1
    4    46	 1
    4     7	 1
    4    42	 1
    5    28	 1
    5    14	 1
    5    39	 1
    5    40	 1
    5     9	 1
    5     8	 1
    5    12	 1
    5    11	 1
    6    33	 1
    6    29	 1
    6    19	 1
    6    15	 1
    6    38	 1
    6    41	 1
    6    10	 1
    6    45	 1
    6    46	 1
    6    43	 1
    6    44	 1
    7    28	 1
    7    14	 1
    7    13	 1
    7    12	 1
    7    11	 1
    8    42	 1
    8    10	 1
    8    43	 1
    8    44	 1
    9    42	 1
    9    45	 1
    9    46	 1
   11    43	 1
   11    44	 1
   11    45	 1
   11    46	 1
   12    43	 1
   12    44	 1
   12    45	 1
   12    46	 1
   13    38	 1
   13    41	 1
   13    42	 1
   13    43	 1
   13    44	 1
   14    42	 1
   14    33	 1
   14    29	 1
   14    17	 1
   14    20	 1
   14    49	 1
   15    28	 1
   15    18	 1
   15    50	 1
   15    48	 1
   15    21	 1
   15    25	 1
   16    19	 1
   16    49	 1
   16    22	 1
   16    51	 1
   16    27	 1
   16    24	 1
   17    47	 1
   17    21	 1
   17    25	 1
   17    50	 1
   18    20	 1
   19    28	 1
   19    47	 1
   19    48	 1
   20    47	 1
   20    48	 1
   20    23	 1
   20    52	 1
   20    26	 1
   21    27	 1
   21    24	 1
   21    53	 1
   21    54	 1
   22    25	 1
   22    26	 1
   23    51	 1
   23    27	 1
   24    52	 1
   25    51	 1
   25    53	 1
   25    54	 1
   26    53	 1
   26    54	 1
   26    27	 1
   28    42	 1
   28    31	 1
   28    56	 1
   28    57	 1
   29    32	 1
   29    58	 1
   29    34	 1
   30    33	 1
   30    57	 1
   30    35	 1
   31    55	 1
   31    58	 1
   31    36	 1
   31    37	 1
   31    59	 1
   32    56	 1
   32    35	 1
   33    55	 1
   33    34	 1
   34    56	 1
   34    57	 1
   39    41	 1
   40    41	 1
   48    49	 1
   49    50	 1
   51    52	 1
   52    53	 1
   52    54	 1
   55    56	 1
   57    58	 1

[ angles ]
;	ai	  aj	ak funct			c0			  c1			c2			  c3
    6     1    28	5 ;     CG3RC1     CG3C50     CG2R61
    6     1     2	5 ;     CG3RC1     CG3C50     NG3C51
    6     1    14	5 ;     CG3RC1     CG3C50     CG2R61
   28     1     2	5 ;     CG2R61     CG3C50     NG3C51
   28     1    14	5 ;     CG2R61     CG3C50     CG2R61
    2     1    14	5 ;     NG3C51     CG3C50     CG2R61
    4     2     1	5 ;     CG3C51     NG3C51     CG3C50
    4     2     3	5 ;     CG3C51     NG3C51       HGP1
    1     2     3	5 ;     CG3C50     NG3C51       HGP1
    5     4    38	5 ;     NG3C51     CG3C51      NG321
    5     4     2	5 ;     NG3C51     CG3C51     NG3C51
    5     4    41	5 ;     NG3C51     CG3C51       HGA1
   38     4     2	5 ;      NG321     CG3C51     NG3C51
   38     4    41	5 ;      NG321     CG3C51       HGA1
    2     4    41	5 ;     NG3C51     CG3C51       HGA1
   13     5     6	5 ;      CG321     NG3C51     CG3RC1
   13     5     4	5 ;      CG321     NG3C51     CG3C51
    6     5     4	5 ;     CG3RC1     NG3C51     CG3C51
    7     6     5	5 ;      NG311     CG3RC1     NG3C51
    7     6     1	5 ;      NG311     CG3RC1     CG3C50
    7     6    42	5 ;      NG311     CG3RC1       HGA1
    5     6     1	5 ;     NG3C51     CG3RC1     CG3C50
    5     6    42	5 ;     NG3C51     CG3RC1       HGA1
    1     6    42	5 ;     CG3C50     CG3RC1       HGA1
    9     7     8	5 ;      CG321      NG311     HGPAM1
    9     7     6	5 ;      CG321      NG311     CG3RC1
    8     7     6	5 ;     HGPAM1      NG311     CG3RC1
   10     9     7	5 ;      CG312      CG321      NG311
   10     9    43	5 ;      CG312      CG321       HGA2
   10     9    44	5 ;      CG312      CG321       HGA2
    7     9    43	5 ;      NG311      CG321       HGA2
    7     9    44	5 ;      NG311      CG321       HGA2
   43     9    44	5 ;       HGA2      CG321       HGA2
   12    10    11	5 ;       FGA2      CG312       FGA2
   12    10     9	5 ;       FGA2      CG312      CG321
   12    10    13	5 ;       FGA2      CG312      CG321
   11    10     9	5 ;       FGA2      CG312      CG321
   11    10    13	5 ;       FGA2      CG312      CG321
    9    10    13	5 ;      CG321      CG312      CG321
   10    13     5	5 ;      CG312      CG321     NG3C51
   10    13    45	5 ;      CG312      CG321       HGA2
   10    13    46	5 ;      CG312      CG321       HGA2
    5    13    45	5 ;     NG3C51      CG321       HGA2
    5    13    46	5 ;     NG3C51      CG321       HGA2
   45    13    46	5 ;       HGA2      CG321       HGA2
   19    14     1	5 ;     CG2R61     CG2R61     CG3C50
   19    14    15	5 ;     CG2R61     CG2R61     CG2R61
    1    14    15	5 ;     CG3C50     CG2R61     CG2R61
   14    15    16	5 ;     CG2R61     CG2R61     CG2R61
   14    15    47	5 ;     CG2R61     CG2R61      HGR61
   16    15    47	5 ;     CG2R61     CG2R61      HGR61
   17    16    15	5 ;     CG2R61     CG2R61     CG2R61
   17    16    20	5 ;     CG2R61     CG2R61     CG2DC1
   15    16    20	5 ;     CG2R61     CG2R61     CG2DC1
   18    17    16	5 ;     CG2R61     CG2R61     CG2R61
   18    17    48	5 ;     CG2R61     CG2R61      HGR61
   16    17    48	5 ;     CG2R61     CG2R61      HGR61
   19    18    17	5 ;     CG2R61     CG2R61     CG2R61
   19    18    49	5 ;     CG2R61     CG2R61      HGR61
   17    18    49	5 ;     CG2R61     CG2R61      HGR61
   18    19    14	5 ;     CG2R61     CG2R61     CG2R61
   18    19    50	5 ;     CG2R61     CG2R61      HGR61
   14    19    50	5 ;     CG2R61     CG2R61      HGR61
   16    20    21	5 ;     CG2R61     CG2DC1     CG2DC2
   16    20    25	5 ;     CG2R61     CG2DC1     CG2D1O
   21    20    25	5 ;     CG2DC2     CG2DC1     CG2D1O
   20    21    22	5 ;     CG2DC1     CG2DC2     CG2DC2
   20    21    51	5 ;     CG2DC1     CG2DC2       HGA4
   22    21    51	5 ;     CG2DC2     CG2DC2       HGA4
   21    22    23	5 ;     CG2DC2     CG2DC2      CG321
   21    22    52	5 ;     CG2DC2     CG2DC2       HGA4
   23    22    52	5 ;      CG321     CG2DC2       HGA4
   22    23    24	5 ;     CG2DC2      CG321      NG311
   22    23    53	5 ;     CG2DC2      CG321       HGA2
   22    23    54	5 ;     CG2DC2      CG321       HGA2
   24    23    53	5 ;      NG311      CG321       HGA2
   24    23    54	5 ;      NG311      CG321       HGA2
   53    23    54	5 ;       HGA2      CG321       HGA2
   25    24    26	5 ;     CG2D1O      NG311     HGPAM1
   25    24    23	5 ;     CG2D1O      NG311      CG321
   26    24    23	5 ;     HGPAM1      NG311      CG321
   20    25    27	5 ;     CG2DC1     CG2D1O       FGA1
   20    25    24	5 ;     CG2DC1     CG2D1O      NG311
   27    25    24	5 ;       FGA1     CG2D1O      NG311
    1    28    33	5 ;     CG3C50     CG2R61     CG2R61
    1    28    29	5 ;     CG3C50     CG2R61     CG2R61
   33    28    29	5 ;     CG2R61     CG2R61     CG2R61
   28    29    30	5 ;     CG2R61     CG2R61     CG2R61
   28    29    55	5 ;     CG2R61     CG2R61      HGR61
   30    29    55	5 ;     CG2R61     CG2R61      HGR61
   29    30    31	5 ;     CG2R61     CG2R61     CG2R61
   29    30    56	5 ;     CG2R61     CG2R61      HGR61
   31    30    56	5 ;     CG2R61     CG2R61      HGR61
   32    31    30	5 ;     CG2R61     CG2R61     CG2R61
   32    31    34	5 ;     CG2R61     CG2R61      OG301
   30    31    34	5 ;     CG2R61     CG2R61      OG301
   33    32    31	5 ;     CG2R61     CG2R61     CG2R61
   33    32    57	5 ;     CG2R61     CG2R61      HGR61
   31    32    57	5 ;     CG2R61     CG2R61      HGR61
   28    33    32	5 ;     CG2R61     CG2R61     CG2R61
   28    33    58	5 ;     CG2R61     CG2R61      HGR61
   32    33    58	5 ;     CG2R61     CG2R61      HGR61
   35    34    31	5 ;      CG312      OG301     CG2R61
   36    35    37	5 ;       FGA2      CG312       FGA2
   36    35    34	5 ;       FGA2      CG312      OG301
   36    35    59	5 ;       FGA2      CG312       HGA7
   37    35    34	5 ;       FGA2      CG312      OG301
   37    35    59	5 ;       FGA2      CG312       HGA7
   34    35    59	5 ;      OG301      CG312       HGA7
   39    38     4	5 ;     HGPAM2      NG321     CG3C51
   39    38    40	5 ;     HGPAM2      NG321     HGPAM2
    4    38    40	5 ;     CG3C51      NG321     HGPAM2

[ dihedrals ]
;	ai	  aj	ak	  al funct			  c0			c1			  c2			c3			  c4			c5
   28     1     6     7	 9 ;     CG2R61     CG3C50     CG3RC1      NG311
   28     1     6     5	 9 ;     CG2R61     CG3C50     CG3RC1     NG3C51
   28     1     6    42	 9 ;     CG2R61     CG3C50     CG3RC1       HGA1
    2     1     6     7	 9 ;     NG3C51     CG3C50     CG3RC1      NG311
    2     1     6     5	 9 ;     NG3C51     CG3C50     CG3RC1     NG3C51
    2     1     6    42	 9 ;     NG3C51     CG3C50     CG3RC1       HGA1
   14     1     6     7	 9 ;     CG2R61     CG3C50     CG3RC1      NG311
   14     1     6     5	 9 ;     CG2R61     CG3C50     CG3RC1     NG3C51
   14     1     6    42	 9 ;     CG2R61     CG3C50     CG3RC1       HGA1
    6     1    28    33	 9 ;     CG3RC1     CG3C50     CG2R61     CG2R61
    6     1    28    29	 9 ;     CG3RC1     CG3C50     CG2R61     CG2R61
    2     1    28    33	 9 ;     NG3C51     CG3C50     CG2R61     CG2R61
    2     1    28    29	 9 ;     NG3C51     CG3C50     CG2R61     CG2R61
   14     1    28    33	 9 ;     CG2R61     CG3C50     CG2R61     CG2R61
   14     1    28    29	 9 ;     CG2R61     CG3C50     CG2R61     CG2R61
    6     1     2     4	 9 ;     CG3RC1     CG3C50     NG3C51     CG3C51
    6     1     2     3	 9 ;     CG3RC1     CG3C50     NG3C51       HGP1
   28     1     2     4	 9 ;     CG2R61     CG3C50     NG3C51     CG3C51
   28     1     2     3	 9 ;     CG2R61     CG3C50     NG3C51       HGP1
   14     1     2     4	 9 ;     CG2R61     CG3C50     NG3C51     CG3C51
   14     1     2     3	 9 ;     CG2R61     CG3C50     NG3C51       HGP1
    6     1    14    19	 9 ;     CG3RC1     CG3C50     CG2R61     CG2R61
    6     1    14    15	 9 ;     CG3RC1     CG3C50     CG2R61     CG2R61
   28     1    14    19	 9 ;     CG2R61     CG3C50     CG2R61     CG2R61
   28     1    14    15	 9 ;     CG2R61     CG3C50     CG2R61     CG2R61
    2     1    14    19	 9 ;     NG3C51     CG3C50     CG2R61     CG2R61
    2     1    14    15	 9 ;     NG3C51     CG3C50     CG2R61     CG2R61
    1     2     4     5	 9 ;     CG3C50     NG3C51     CG3C51     NG3C51
    1     2     4    38	 9 ;     CG3C50     NG3C51     CG3C51      NG321
    1     2     4    41	 9 ;     CG3C50     NG3C51     CG3C51       HGA1
    3     2     4     5	 9 ;       HGP1     NG3C51     CG3C51     NG3C51
    3     2     4    38	 9 ;       HGP1     NG3C51     CG3C51      NG321
    3     2     4    41	 9 ;       HGP1     NG3C51     CG3C51       HGA1
   38     4     5    13	 9 ;      NG321     CG3C51     NG3C51      CG321
   38     4     5     6	 9 ;      NG321     CG3C51     NG3C51     CG3RC1
    2     4     5    13	 9 ;     NG3C51     CG3C51     NG3C51      CG321
    2     4     5     6	 9 ;     NG3C51     CG3C51     NG3C51     CG3RC1
   41     4     5    13	 9 ;       HGA1     CG3C51     NG3C51      CG321
   41     4     5     6	 9 ;       HGA1     CG3C51     NG3C51     CG3RC1
    5     4    38    39	 9 ;     NG3C51     CG3C51      NG321     HGPAM2
    5     4    38    40	 9 ;     NG3C51     CG3C51      NG321     HGPAM2
    2     4    38    39	 9 ;     NG3C51     CG3C51      NG321     HGPAM2
    2     4    38    40	 9 ;     NG3C51     CG3C51      NG321     HGPAM2
   41     4    38    39	 9 ;       HGA1     CG3C51      NG321     HGPAM2
   41     4    38    40	 9 ;       HGA1     CG3C51      NG321     HGPAM2
    6     5    13    10	 9 ;     CG3RC1     NG3C51      CG321      CG312
    6     5    13    45	 9 ;     CG3RC1     NG3C51      CG321       HGA2
    6     5    13    46	 9 ;     CG3RC1     NG3C51      CG321       HGA2
    4     5    13    10	 9 ;     CG3C51     NG3C51      CG321      CG312
    4     5    13    45	 9 ;     CG3C51     NG3C51      CG321       HGA2
    4     5    13    46	 9 ;     CG3C51     NG3C51      CG321       HGA2
   13     5     6     7	 9 ;      CG321     NG3C51     CG3RC1      NG311
   13     5     6     1	 9 ;      CG321     NG3C51     CG3RC1     CG3C50
   13     5     6    42	 9 ;      CG321     NG3C51     CG3RC1       HGA1
    4     5     6     7	 9 ;     CG3C51     NG3C51     CG3RC1      NG311
    4     5     6     1	 9 ;     CG3C51     NG3C51     CG3RC1     CG3C50
    4     5     6    42	 9 ;     CG3C51     NG3C51     CG3RC1       HGA1
    5     6     7     9	 9 ;     NG3C51     CG3RC1      NG311      CG321
    5     6     7     8	 9 ;     NG3C51     CG3RC1      NG311     HGPAM1
    1     6     7     9	 9 ;     CG3C50     CG3RC1      NG311      CG321
    1     6     7     8	 9 ;     CG3C50     CG3RC1      NG311     HGPAM1
   42     6     7     9	 9 ;       HGA1     CG3RC1      NG311      CG321
   42     6     7     8	 9 ;       HGA1     CG3RC1      NG311     HGPAM1
    8     7     9    10	 9 ;     HGPAM1      NG311      CG321      CG312
    8     7     9    43	 9 ;     HGPAM1      NG311      CG321       HGA2
    8     7     9    44	 9 ;     HGPAM1      NG311      CG321       HGA2
    6     7     9    10	 9 ;     CG3RC1      NG311      CG321      CG312
    6     7     9    43	 9 ;     CG3RC1      NG311      CG321       HGA2
    6     7     9    44	 9 ;     CG3RC1      NG311      CG321       HGA2
    7     9    10    12	 9 ;      NG311      CG321      CG312       FGA2
    7     9    10    11	 9 ;      NG311      CG321      CG312       FGA2
    7     9    10    13	 9 ;      NG311      CG321      CG312      CG321
   43     9    10    12	 9 ;       HGA2      CG321      CG312       FGA2
   43     9    10    11	 9 ;       HGA2      CG321      CG312       FGA2
   43     9    10    13	 9 ;       HGA2      CG321      CG312      CG321
   44     9    10    12	 9 ;       HGA2      CG321      CG312       FGA2
   44     9    10    11	 9 ;       HGA2      CG321      CG312       FGA2
   44     9    10    13	 9 ;       HGA2      CG321      CG312      CG321
   12    10    13     5	 9 ;       FGA2      CG312      CG321     NG3C51
   12    10    13    45	 9 ;       FGA2      CG312      CG321       HGA2
   12    10    13    46	 9 ;       FGA2      CG312      CG321       HGA2
   11    10    13     5	 9 ;       FGA2      CG312      CG321     NG3C51
   11    10    13    45	 9 ;       FGA2      CG312      CG321       HGA2
   11    10    13    46	 9 ;       FGA2      CG312      CG321       HGA2
    9    10    13     5	 9 ;      CG321      CG312      CG321     NG3C51
    9    10    13    45	 9 ;      CG321      CG312      CG321       HGA2
    9    10    13    46	 9 ;      CG321      CG312      CG321       HGA2
    1    14    19    18	 9 ;     CG3C50     CG2R61     CG2R61     CG2R61
    1    14    19    50	 9 ;     CG3C50     CG2R61     CG2R61      HGR61
   15    14    19    18	 9 ;     CG2R61     CG2R61     CG2R61     CG2R61
   15    14    19    50	 9 ;     CG2R61     CG2R61     CG2R61      HGR61
   19    14    15    16	 9 ;     CG2R61     CG2R61     CG2R61     CG2R61
   19    14    15    47	 9 ;     CG2R61     CG2R61     CG2R61      HGR61
    1    14    15    16	 9 ;     CG3C50     CG2R61     CG2R61     CG2R61
    1    14    15    47	 9 ;     CG3C50     CG2R61     CG2R61      HGR61
   14    15    16    17	 9 ;     CG2R61     CG2R61     CG2R61     CG2R61
   14    15    16    20	 9 ;     CG2R61     CG2R61     CG2R61     CG2DC1
   47    15    16    17	 9 ;      HGR61     CG2R61     CG2R61     CG2R61
   47    15    16    20	 9 ;      HGR61     CG2R61     CG2R61     CG2DC1
   15    16    17    18	 9 ;     CG2R61     CG2R61     CG2R61     CG2R61
   15    16    17    48	 9 ;     CG2R61     CG2R61     CG2R61      HGR61
   20    16    17    18	 9 ;     CG2DC1     CG2R61     CG2R61     CG2R61
   20    16    17    48	 9 ;     CG2DC1     CG2R61     CG2R61      HGR61
   17    16    20    21	 9 ;     CG2R61     CG2R61     CG2DC1     CG2DC2
   17    16    20    25	 9 ;     CG2R61     CG2R61     CG2DC1     CG2D1O
   15    16    20    21	 9 ;     CG2R61     CG2R61     CG2DC1     CG2DC2
   15    16    20    25	 9 ;     CG2R61     CG2R61     CG2DC1     CG2D1O
   16    17    18    19	 9 ;     CG2R61     CG2R61     CG2R61     CG2R61
   16    17    18    49	 9 ;     CG2R61     CG2R61     CG2R61      HGR61
   48    17    18    19	 9 ;      HGR61     CG2R61     CG2R61     CG2R61
   48    17    18    49	 9 ;      HGR61     CG2R61     CG2R61      HGR61
   17    18    19    14	 9 ;     CG2R61     CG2R61     CG2R61     CG2R61
   17    18    19    50	 9 ;     CG2R61     CG2R61     CG2R61      HGR61
   49    18    19    14	 9 ;      HGR61     CG2R61     CG2R61     CG2R61
   49    18    19    50	 9 ;      HGR61     CG2R61     CG2R61      HGR61
   16    20    21    22	 9 ;     CG2R61     CG2DC1     CG2DC2     CG2DC2
   16    20    21    51	 9 ;     CG2R61     CG2DC1     CG2DC2       HGA4
   25    20    21    22	 9 ;     CG2D1O     CG2DC1     CG2DC2     CG2DC2
   25    20    21    51	 9 ;     CG2D1O     CG2DC1     CG2DC2       HGA4
   16    20    25    27	 9 ;     CG2R61     CG2DC1     CG2D1O       FGA1
   16    20    25    24	 9 ;     CG2R61     CG2DC1     CG2D1O      NG311
   21    20    25    27	 9 ;     CG2DC2     CG2DC1     CG2D1O       FGA1
   21    20    25    24	 9 ;     CG2DC2     CG2DC1     CG2D1O      NG311
   20    21    22    23	 9 ;     CG2DC1     CG2DC2     CG2DC2      CG321
   20    21    22    52	 9 ;     CG2DC1     CG2DC2     CG2DC2       HGA4
   51    21    22    23	 9 ;       HGA4     CG2DC2     CG2DC2      CG321
   51    21    22    52	 9 ;       HGA4     CG2DC2     CG2DC2       HGA4
   21    22    23    24	 9 ;     CG2DC2     CG2DC2      CG321      NG311
   21    22    23    53	 9 ;     CG2DC2     CG2DC2      CG321       HGA2
   21    22    23    54	 9 ;     CG2DC2     CG2DC2      CG321       HGA2
   52    22    23    24	 9 ;       HGA4     CG2DC2      CG321      NG311
   52    22    23    53	 9 ;       HGA4     CG2DC2      CG321       HGA2
   52    22    23    54	 9 ;       HGA4     CG2DC2      CG321       HGA2
   22    23    24    25	 9 ;     CG2DC2      CG321      NG311     CG2D1O
   22    23    24    26	 9 ;     CG2DC2      CG321      NG311     HGPAM1
   53    23    24    25	 9 ;       HGA2      CG321      NG311     CG2D1O
   53    23    24    26	 9 ;       HGA2      CG321      NG311     HGPAM1
   54    23    24    25	 9 ;       HGA2      CG321      NG311     CG2D1O
   54    23    24    26	 9 ;       HGA2      CG321      NG311     HGPAM1
   26    24    25    20	 9 ;     HGPAM1      NG311     CG2D1O     CG2DC1
   26    24    25    27	 9 ;     HGPAM1      NG311     CG2D1O       FGA1
   23    24    25    20	 9 ;      CG321      NG311     CG2D1O     CG2DC1
   23    24    25    27	 9 ;      CG321      NG311     CG2D1O       FGA1
    1    28    33    32	 9 ;     CG3C50     CG2R61     CG2R61     CG2R61
    1    28    33    58	 9 ;     CG3C50     CG2R61     CG2R61      HGR61
   29    28    33    32	 9 ;     CG2R61     CG2R61     CG2R61     CG2R61
   29    28    33    58	 9 ;     CG2R61     CG2R61     CG2R61      HGR61
    1    28    29    30	 9 ;     CG3C50     CG2R61     CG2R61     CG2R61
    1    28    29    55	 9 ;     CG3C50     CG2R61     CG2R61      HGR61
   33    28    29    30	 9 ;     CG2R61     CG2R61     CG2R61     CG2R61
   33    28    29    55	 9 ;     CG2R61     CG2R61     CG2R61      HGR61
   28    29    30    31	 9 ;     CG2R61     CG2R61     CG2R61     CG2R61
   28    29    30    56	 9 ;     CG2R61     CG2R61     CG2R61      HGR61
   55    29    30    31	 9 ;      HGR61     CG2R61     CG2R61     CG2R61
   55    29    30    56	 9 ;      HGR61     CG2R61     CG2R61      HGR61
   29    30    31    32	 9 ;     CG2R61     CG2R61     CG2R61     CG2R61
   29    30    31    34	 9 ;     CG2R61     CG2R61     CG2R61      OG301
   56    30    31    32	 9 ;      HGR61     CG2R61     CG2R61     CG2R61
   56    30    31    34	 9 ;      HGR61     CG2R61     CG2R61      OG301
   30    31    32    33	 9 ;     CG2R61     CG2R61     CG2R61     CG2R61
   30    31    32    57	 9 ;     CG2R61     CG2R61     CG2R61      HGR61
   34    31    32    33	 9 ;      OG301     CG2R61     CG2R61     CG2R61
   34    31    32    57	 9 ;      OG301     CG2R61     CG2R61      HGR61
   32    31    34    35	 9 ;     CG2R61     CG2R61      OG301      CG312
   30    31    34    35	 9 ;     CG2R61     CG2R61      OG301      CG312
   31    32    33    28	 9 ;     CG2R61     CG2R61     CG2R61     CG2R61
   31    32    33    58	 9 ;     CG2R61     CG2R61     CG2R61      HGR61
   57    32    33    28	 9 ;      HGR61     CG2R61     CG2R61     CG2R61
   57    32    33    58	 9 ;      HGR61     CG2R61     CG2R61      HGR61
   31    34    35    36	 9 ;     CG2R61      OG301      CG312       FGA2
   31    34    35    37	 9 ;     CG2R61      OG301      CG312       FGA2
   31    34    35    59	 9 ;     CG2R61      OG301      CG312       HGA7

[ dihedrals ]
;	ai	  aj	ak	  al funct			  c0			c1			  c2			c3
   25    20    24    27	 2

