GROningen MAchine for Chemical Simulation
   59
    1LIG     C1    1  -1.361   0.461  -1.708
    1LIG     N1    2  -1.332   0.608  -1.668
    1LIG    HN1    3  -1.284   0.642  -1.585
    1LIG     C2    4  -1.385   0.677  -1.767
    1LIG     N2    5  -1.398   0.610  -1.884
    1LIG     C3    6  -1.373   0.478  -1.865
    1LIG     N3    7  -1.356   0.386  -1.953
    1LIG    HN2    8  -1.352   0.287  -1.929
    1LIG     C4    9  -1.342   0.433  -2.092
    1LIG     C5   10  -1.416   0.562  -2.128
    1LIG     F1   11  -1.534   0.530  -2.188
    1LIG     F2   12  -1.344   0.627  -2.224
    1LIG     C6   13  -1.443   0.659  -2.013
    1LIG     C7   14  -1.496   0.432  -1.637
    1LIG     C8   15  -1.507   0.440  -1.498
    1LIG     C9   16  -1.621   0.396  -1.430
    1LIG    C10   17  -1.731   0.355  -1.507
    1LIG    C11   18  -1.725   0.354  -1.647
    1LIG    C12   19  -1.608   0.391  -1.711
    1LIG    C13   20  -1.619   0.387  -1.283
    1LIG    C14   21  -1.704   0.302  -1.212
    1LIG    C15   22  -1.696   0.297  -1.073
    1LIG    C16   23  -1.605   0.377  -1.008
    1LIG     N4   24  -1.520   0.461  -1.072
    1LIG    C17   25  -1.529   0.464  -1.207
    1LIG    HN3   26  -1.454   0.520  -1.021
    1LIG     F3   27  -1.443   0.546  -1.268
    1LIG    C18   28  -1.264   0.346  -1.679
    1LIG    C19   29  -1.133   0.385  -1.643
    1LIG    C20   30  -1.036   0.296  -1.600
    1LIG    C21   31  -1.067   0.161  -1.593
    1LIG    C22   32  -1.194   0.118  -1.638
    1LIG    C23   33  -1.292   0.210  -1.680
    1LIG      O   34  -0.982   0.066  -1.545
    1LIG    C24   35  -0.965  -0.046  -1.631
    1LIG     F4   36  -0.874  -0.011  -1.727
    1LIG     F5   37  -0.909  -0.148  -1.561
    1LIG     N5   38  -1.426   0.806  -1.760
    1LIG     H1   39  -1.403   0.862  -1.842
    1LIG     H2   40  -1.527   0.810  -1.745
    1LIG     H3   41  -1.381   0.757  -1.696
    1LIG     H4   42  -1.384   0.405  -1.943
    1LIG     H5   43  -1.238   0.449  -2.111
    1LIG     H6   44  -1.388   0.357  -2.152
    1LIG     H7   45  -1.549   0.677  -2.008
    1LIG     H8   46  -1.388   0.749  -2.033
    1LIG     H9   47  -1.428   0.479  -1.444
    1LIG    H10   48  -1.818   0.326  -1.460
    1LIG    H11   49  -1.808   0.325  -1.702
    1LIG    H12   50  -1.602   0.388  -1.814
    1LIG    H13   51  -1.772   0.243  -1.263
    1LIG    H14   52  -1.758   0.234  -1.019
    1LIG    H15   53  -1.543   0.311  -0.951
    1LIG    H16   54  -1.669   0.447  -0.959
    1LIG    H17   55  -1.108   0.485  -1.649
    1LIG    H18   56  -0.942   0.329  -1.574
    1LIG    H19   57  -1.214   0.017  -1.640
    1LIG    H20   58  -1.385   0.176  -1.711
    1LIG    H21   59  -1.059  -0.075  -1.673
   0.00000   0.00000   0.00000
