Gromacs Runs One Microsecond At Cannonball Speeds
   45
    1LIG     C2    1   8.537   1.718   9.504
    1LIG     O5    2   8.653   1.469   9.509
    1LIG     C4    3   8.542   1.398   9.312
    1LIG     C5    4   8.455   1.432   9.207
    1LIG     C6    5   8.609   1.276   9.312
    1LIG     C7    6   8.437   1.341   9.100
    1LIG     C8    7   8.590   1.186   9.208
    1LIG     C9    8   8.504   1.218   9.102
    1LIG    C10    9   8.487   1.619   9.427
    1LIG    C11   10   8.360   1.616   9.348
    1LIG    C12   11   8.568   1.493   9.424
    1LIG    C13   12   8.385   1.566   9.206
    1LIG     N1   13   8.381   1.852   9.623
    1LIG     O4   14   8.503   1.948   9.453
    1LIG     C3   15   8.474   1.851   9.521
    1LIG     H5   16   8.342   1.760   9.643
    1LIG    C14   17   8.292   1.969   9.641
    1LIG    C16   18   8.229   1.977   9.782
    1LIG    C17   19   8.327   1.945   9.895
    1LIG    C18   20   8.168   2.115   9.808
    1LIG     O2   21   8.089   1.875   9.541
    1LIG    C15   22   8.180   1.956   9.536
    1LIG     O3   23   8.198   2.038   9.429
    1LIG     H4   24   8.117   2.089   9.408
    1LIG     C1   25   8.354   1.308   8.879
    1LIG     O1   26   8.354   1.382   9.000
    1LIG     H1   27   8.625   1.699   9.555
    1LIG     H2   28   8.672   1.251   9.390
    1LIG     H3   29   8.638   1.095   9.208
    1LIG     H6   30   8.491   1.151   9.025
    1LIG     H7   31   8.290   1.551   9.396
    1LIG     H8   32   8.321   1.716   9.343
    1LIG     H9   33   8.292   1.557   9.155
    1LIG    H10   34   8.449   1.636   9.157
    1LIG     HA   35   8.350   2.058   9.629
    1LIG     HB   36   8.153   1.901   9.783
    1LIG   HG21   37   8.404   2.019   9.897
    1LIG   HG22   38   8.370   1.849   9.879
    1LIG   HG23   39   8.275   1.946   9.989
    1LIG   HG11   40   8.245   2.189   9.807
    1LIG   HG12   41   8.119   2.116   9.903
    1LIG   HG13   42   8.096   2.138   9.732
    1LIG    H11   43   8.285   1.351   8.810
    1LIG    H12   44   8.326   1.207   8.899
    1LIG    H13   45   8.452   1.310   8.836
   0.00000   0.00000   0.00000
