GROtesk MACabre and Sinister
   51
    1LIG     C1    1  -1.310   0.442  -1.561
    1LIG     N1    2  -1.293   0.550  -1.460
    1LIG    HN3    3  -1.341   0.560  -1.370
    1LIG     C2    4  -1.204   0.629  -1.510
    1LIG     O1    5  -1.149   0.602  -1.629
    1LIG     C3    6  -1.198   0.473  -1.663
    1LIG     C4    7  -1.301   0.305  -1.489
    1LIG     C5    8  -1.278   0.190  -1.569
    1LIG     C6    9  -1.233   0.071  -1.513
    1LIG     C7   10  -1.212   0.062  -1.375
    1LIG     C8   11  -1.248   0.170  -1.294
    1LIG     C9   12  -1.291   0.290  -1.350
    1LIG     O2   13  -1.158  -0.045  -1.311
    1LIG    C10   14  -1.016  -0.053  -1.322
    1LIG     F1   15  -0.989  -0.122  -1.436
    1LIG     F2   16  -0.967   0.072  -1.339
    1LIG    C11   17  -1.449   0.446  -1.629
    1LIG    C12   18  -1.568   0.408  -1.562
    1LIG    C13   19  -1.689   0.386  -1.632
    1LIG    C14   20  -1.688   0.403  -1.771
    1LIG    C15   21  -1.574   0.445  -1.839
    1LIG    C16   22  -1.457   0.469  -1.768
    1LIG    C17   23  -1.812   0.344  -1.561
    1LIG    C18   24  -1.902   0.254  -1.619
    1LIG    C19   25  -2.017   0.214  -1.551
    1LIG    C20   26  -2.039   0.265  -1.424
    1LIG     N2   27  -1.956   0.351  -1.363
    1LIG    C21   28  -1.845   0.389  -1.432
    1LIG    HN4   29  -1.974   0.386  -1.269
    1LIG     F3   30  -1.765   0.476  -1.369
    1LIG     N3   31  -1.155   0.741  -1.453
    1LIG     H1   32  -1.227   0.803  -1.417
    1LIG     H2   33  -1.079   0.725  -1.388
    1LIG    HN2   34  -1.220   0.497  -1.415
    1LIG     HC   35  -1.283   0.688  -1.559
    1LIG    HC2   36  -1.238   0.473  -1.764
    1LIG    HC3   37  -1.118   0.399  -1.654
    1LIG    HC1   38  -1.296   0.196  -1.675
    1LIG    HC4   39  -1.214  -0.015  -1.575
    1LIG    HC5   40  -1.242   0.160  -1.186
    1LIG    HC6   41  -1.317   0.373  -1.286
    1LIG    HC7   42  -0.973  -0.101  -1.235
    1LIG    HC8   43  -1.565   0.395  -1.455
    1LIG    HC9   44  -1.779   0.383  -1.827
    1LIG   HC10   45  -1.576   0.458  -1.946
    1LIG   HC11   46  -1.370   0.506  -1.821
    1LIG   HC12   47  -1.883   0.215  -1.718
    1LIG   HC13   48  -2.087   0.144  -1.595
    1LIG   HC14   49  -2.128   0.234  -1.371
    1LIG    HN1   50  -1.113   0.792  -1.529
    1LIG    H22   51  -2.094   0.349  -1.467
   0.00000   0.00000   0.00000
