; Created by cgenff_charmm2gmx.py

[ moleculetype ]
; Name			   nrexcl
LIG				 3

[ atoms ]
;	 nr		  type	resnr residue  atom   cgnr	   charge		mass  typeB    chargeB		massB
; residue	 1 LIG rtp LIG q	qsum
     1     CG3C50      1    LIG     C1      1      1.266     12.011   ;
     2      NG3P2      1    LIG     N1      2     -1.541     14.007   ;
     3       HGP2      1    LIG    HN3      3      0.500      1.008   ;
     4     CG3C53      1    LIG     C2      4      1.711     12.011   ;
     5     OG3C51      1    LIG     O1      5     -0.243     15.999   ;
     6     CG3C52      1    LIG     C3      6     -0.015     12.011   ;
     7     CG2R61      1    LIG     C4      7     -0.288     12.011   ;
     8     CG2R61      1    LIG     C5      8     -0.127     12.011   ;
     9     CG2R61      1    LIG     C6      9     -0.108     12.011   ;
    10     CG2R61      1    LIG     C7     10      0.217     12.011   ;
    11     CG2R61      1    LIG     C8     11     -0.108     12.011   ;
    12     CG2R61      1    LIG     C9     12     -0.127     12.011   ;
    13      OG301      1    LIG     O2     13     -0.272     15.999   ;
    14      CG312      1    LIG    C10     14      0.216     12.011   ;
    15       FGA2      1    LIG     F1     15     -0.160     18.998   ;
    16       FGA2      1    LIG     F2     16     -0.160     18.998   ;
    17     CG2R61      1    LIG    C11     17     -0.285     12.011   ;
    18     CG2R61      1    LIG    C12     18     -0.131     12.011   ;
    19     CG2R61      1    LIG    C13     19     -0.137     12.011   ;
    20     CG2R61      1    LIG    C14     20     -0.117     12.011   ;
    21     CG2R61      1    LIG    C15     21     -0.102     12.011   ;
    22     CG2R61      1    LIG    C16     22     -0.130     12.011   ;
    23     CG2DC1      1    LIG    C17     23      0.053     12.011   ;
    24     CG2DC2      1    LIG    C18     24     -0.246     12.011   ;
    25     CG2DC2      1    LIG    C19     25     -0.181     12.011   ;
    26      CG321      1    LIG    C20     26     -0.037     12.011   ;
    27      NG311      1    LIG     N2     27     -0.466     14.007   ;
    28     CG2D1O      1    LIG    C21     28      0.321     12.011   ;
    29     HGPAM1      1    LIG    HN4     29      0.324      1.008   ;
    30       FGA1      1    LIG     F3     30     -0.107     18.998   ;
    31      NG3P3      1    LIG     N3     31     -0.781     14.007   ;
    32       HGP2      1    LIG     H1     32      0.307      1.008   ;
    33       HGP2      1    LIG     H2     33      0.307      1.008   ;
    34       HGP2      1    LIG    HN2     34      0.500      1.008   ;
    35       HGA1      1    LIG     HC     35      0.090      1.008   ;
    36       HGA2      1    LIG    HC2     36      0.090      1.008   ;
    37       HGA2      1    LIG    HC3     37      0.090      1.008   ;
    38      HGR61      1    LIG    HC1     38      0.116      1.008   ;
    39      HGR61      1    LIG    HC4     39      0.116      1.008   ;
    40      HGR61      1    LIG    HC5     40      0.116      1.008   ;
    41      HGR61      1    LIG    HC6     41      0.116      1.008   ;
    42       HGA7      1    LIG    HC7     42      0.159      1.008   ;
    43      HGR61      1    LIG    HC8     43      0.116      1.008   ;
    44      HGR61      1    LIG    HC9     44      0.116      1.008   ;
    45      HGR61      1    LIG   HC10     45      0.116      1.008   ;
    46      HGR61      1    LIG   HC11     46      0.116      1.008   ;
    47       HGA4      1    LIG   HC12     47      0.153      1.008   ;
    48       HGA4      1    LIG   HC13     48      0.150      1.008   ;
    49       HGA2      1    LIG   HC14     49      0.090      1.008   ;
    50       HGP2      1    LIG    HN1     50      0.307      1.008   ;
    51       HGA2      1    LIG    H22     51      0.090      1.008   ;

[ bonds ]
;	ai	  aj funct			  c0			c1			  c2			c3
    1     6	 1 ;      CG3C50     CG3C52
    1     2	 1 ;      CG3C50      NG3P2
    1     7	 1 ;      CG3C50     CG2R61
    1    17	 1 ;      CG3C50     CG2R61
    2     4	 1 ;       NG3P2     CG3C53
    2     3	 1 ;       NG3P2       HGP2
    2    34	 1 ;       NG3P2       HGP2
    4     5	 1 ;      CG3C53     OG3C51
    4    31	 1 ;      CG3C53      NG3P3
    4    35	 1 ;      CG3C53       HGA1
    5     6	 1 ;      OG3C51     CG3C52
    6    36	 1 ;      CG3C52       HGA2
    6    37	 1 ;      CG3C52       HGA2
    7     8	 1 ;      CG2R61     CG2R61
    7    12	 1 ;      CG2R61     CG2R61
    8     9	 1 ;      CG2R61     CG2R61
    8    38	 1 ;      CG2R61      HGR61
    9    10	 1 ;      CG2R61     CG2R61
    9    39	 1 ;      CG2R61      HGR61
   10    13	 1 ;      CG2R61      OG301
   10    11	 1 ;      CG2R61     CG2R61
   11    12	 1 ;      CG2R61     CG2R61
   11    40	 1 ;      CG2R61      HGR61
   12    41	 1 ;      CG2R61      HGR61
   13    14	 1 ;       OG301      CG312
   14    16	 1 ;       CG312       FGA2
   14    15	 1 ;       CG312       FGA2
   14    42	 1 ;       CG312       HGA7
   17    22	 1 ;      CG2R61     CG2R61
   17    18	 1 ;      CG2R61     CG2R61
   18    19	 1 ;      CG2R61     CG2R61
   18    43	 1 ;      CG2R61      HGR61
   19    20	 1 ;      CG2R61     CG2R61
   19    23	 1 ;      CG2R61     CG2DC1
   20    21	 1 ;      CG2R61     CG2R61
   20    44	 1 ;      CG2R61      HGR61
   21    22	 1 ;      CG2R61     CG2R61
   21    45	 1 ;      CG2R61      HGR61
   22    46	 1 ;      CG2R61      HGR61
   23    24	 1 ;      CG2DC1     CG2DC2
   23    28	 1 ;      CG2DC1     CG2D1O
   24    25	 1 ;      CG2DC2     CG2DC2
   24    47	 1 ;      CG2DC2       HGA4
   25    26	 1 ;      CG2DC2      CG321
   25    48	 1 ;      CG2DC2       HGA4
   26    27	 1 ;       CG321      NG311
   26    49	 1 ;       CG321       HGA2
   26    51	 1 ;       CG321       HGA2
   27    28	 1 ;       NG311     CG2D1O
   27    29	 1 ;       NG311     HGPAM1
   28    30	 1 ;      CG2D1O       FGA1
   31    33	 1 ;       NG3P3       HGP2
   31    32	 1 ;       NG3P3       HGP2
   31    50	 1 ;       NG3P3       HGP2

[ pairs ]
;	ai	  aj funct			  c0			c1			  c2			c3
    1    31	 1
    1    35	 1
    1     9	 1
    1    38	 1
    1    11	 1
    1    41	 1
    1    21	 1
    1    46	 1
    1    19	 1
    1    43	 1
    2    36	 1
    2    37	 1
    2     8	 1
    2    12	 1
    2    22	 1
    2    18	 1
    2    33	 1
    2    32	 1
    2    50	 1
    3     6	 1
    3     7	 1
    3    17	 1
    3     5	 1
    3    31	 1
    3    35	 1
    4     7	 1
    4    17	 1
    4    36	 1
    4    37	 1
    5     7	 1
    5    17	 1
    5    34	 1
    5    33	 1
    5    32	 1
    5    50	 1
    6    34	 1
    6     8	 1
    6    12	 1
    6    22	 1
    6    18	 1
    6    31	 1
    6    35	 1
    7    36	 1
    7    37	 1
    7    34	 1
    7    22	 1
    7    18	 1
    7    10	 1
    7    39	 1
    7    40	 1
    8    17	 1
    8    11	 1
    8    41	 1
    8    13	 1
    9    12	 1
    9    14	 1
    9    40	 1
   10    38	 1
   10    41	 1
   10    16	 1
   10    15	 1
   10    42	 1
   11    39	 1
   11    14	 1
   12    17	 1
   12    38	 1
   12    13	 1
   13    39	 1
   13    40	 1
   17    36	 1
   17    37	 1
   17    34	 1
   17    20	 1
   17    23	 1
   17    45	 1
   18    21	 1
   18    46	 1
   18    44	 1
   18    24	 1
   18    28	 1
   19    22	 1
   19    45	 1
   19    25	 1
   19    47	 1
   19    30	 1
   19    27	 1
   20    43	 1
   20    24	 1
   20    28	 1
   20    46	 1
   21    23	 1
   22    43	 1
   22    44	 1
   23    43	 1
   23    44	 1
   23    26	 1
   23    48	 1
   23    29	 1
   24    30	 1
   24    27	 1
   24    49	 1
   24    51	 1
   25    28	 1
   25    29	 1
   26    47	 1
   26    30	 1
   27    48	 1
   28    47	 1
   28    49	 1
   28    51	 1
   29    49	 1
   29    51	 1
   29    30	 1
   31    34	 1
   32    35	 1
   33    35	 1
   34    35	 1
   35    50	 1
   38    39	 1
   40    41	 1
   44    45	 1
   45    46	 1
   47    48	 1
   48    49	 1
   48    51	 1

[ angles ]
;	ai	  aj	ak funct			c0			  c1			c2			  c3
    6     1     2	5 ;     CG3C52     CG3C50      NG3P2
    6     1     7	5 ;     CG3C52     CG3C50     CG2R61
    6     1    17	5 ;     CG3C52     CG3C50     CG2R61
    2     1     7	5 ;      NG3P2     CG3C50     CG2R61
    2     1    17	5 ;      NG3P2     CG3C50     CG2R61
    7     1    17	5 ;     CG2R61     CG3C50     CG2R61
    4     2     1	5 ;     CG3C53      NG3P2     CG3C50
    4     2     3	5 ;     CG3C53      NG3P2       HGP2
    4     2    34	5 ;     CG3C53      NG3P2       HGP2
    1     2     3	5 ;     CG3C50      NG3P2       HGP2
    1     2    34	5 ;     CG3C50      NG3P2       HGP2
    3     2    34	5 ;       HGP2      NG3P2       HGP2
    5     4    31	5 ;     OG3C51     CG3C53      NG3P3
    5     4     2	5 ;     OG3C51     CG3C53      NG3P2
    5     4    35	5 ;     OG3C51     CG3C53       HGA1
   31     4     2	5 ;      NG3P3     CG3C53      NG3P2
   31     4    35	5 ;      NG3P3     CG3C53       HGA1
    2     4    35	5 ;      NG3P2     CG3C53       HGA1
    6     5     4	5 ;     CG3C52     OG3C51     CG3C53
    5     6     1	5 ;     OG3C51     CG3C52     CG3C50
    5     6    36	5 ;     OG3C51     CG3C52       HGA2
    5     6    37	5 ;     OG3C51     CG3C52       HGA2
    1     6    36	5 ;     CG3C50     CG3C52       HGA2
    1     6    37	5 ;     CG3C50     CG3C52       HGA2
   36     6    37	5 ;       HGA2     CG3C52       HGA2
    1     7     8	5 ;     CG3C50     CG2R61     CG2R61
    1     7    12	5 ;     CG3C50     CG2R61     CG2R61
    8     7    12	5 ;     CG2R61     CG2R61     CG2R61
    9     8     7	5 ;     CG2R61     CG2R61     CG2R61
    9     8    38	5 ;     CG2R61     CG2R61      HGR61
    7     8    38	5 ;     CG2R61     CG2R61      HGR61
    8     9    10	5 ;     CG2R61     CG2R61     CG2R61
    8     9    39	5 ;     CG2R61     CG2R61      HGR61
   10     9    39	5 ;     CG2R61     CG2R61      HGR61
    9    10    13	5 ;     CG2R61     CG2R61      OG301
    9    10    11	5 ;     CG2R61     CG2R61     CG2R61
   13    10    11	5 ;      OG301     CG2R61     CG2R61
   10    11    12	5 ;     CG2R61     CG2R61     CG2R61
   10    11    40	5 ;     CG2R61     CG2R61      HGR61
   12    11    40	5 ;     CG2R61     CG2R61      HGR61
    7    12    11	5 ;     CG2R61     CG2R61     CG2R61
    7    12    41	5 ;     CG2R61     CG2R61      HGR61
   11    12    41	5 ;     CG2R61     CG2R61      HGR61
   14    13    10	5 ;      CG312      OG301     CG2R61
   16    14    15	5 ;       FGA2      CG312       FGA2
   16    14    13	5 ;       FGA2      CG312      OG301
   16    14    42	5 ;       FGA2      CG312       HGA7
   15    14    13	5 ;       FGA2      CG312      OG301
   15    14    42	5 ;       FGA2      CG312       HGA7
   13    14    42	5 ;      OG301      CG312       HGA7
   22    17     1	5 ;     CG2R61     CG2R61     CG3C50
   22    17    18	5 ;     CG2R61     CG2R61     CG2R61
    1    17    18	5 ;     CG3C50     CG2R61     CG2R61
   17    18    19	5 ;     CG2R61     CG2R61     CG2R61
   17    18    43	5 ;     CG2R61     CG2R61      HGR61
   19    18    43	5 ;     CG2R61     CG2R61      HGR61
   20    19    18	5 ;     CG2R61     CG2R61     CG2R61
   20    19    23	5 ;     CG2R61     CG2R61     CG2DC1
   18    19    23	5 ;     CG2R61     CG2R61     CG2DC1
   21    20    19	5 ;     CG2R61     CG2R61     CG2R61
   21    20    44	5 ;     CG2R61     CG2R61      HGR61
   19    20    44	5 ;     CG2R61     CG2R61      HGR61
   22    21    20	5 ;     CG2R61     CG2R61     CG2R61
   22    21    45	5 ;     CG2R61     CG2R61      HGR61
   20    21    45	5 ;     CG2R61     CG2R61      HGR61
   21    22    17	5 ;     CG2R61     CG2R61     CG2R61
   21    22    46	5 ;     CG2R61     CG2R61      HGR61
   17    22    46	5 ;     CG2R61     CG2R61      HGR61
   19    23    24	5 ;     CG2R61     CG2DC1     CG2DC2
   19    23    28	5 ;     CG2R61     CG2DC1     CG2D1O
   24    23    28	5 ;     CG2DC2     CG2DC1     CG2D1O
   23    24    25	5 ;     CG2DC1     CG2DC2     CG2DC2
   23    24    47	5 ;     CG2DC1     CG2DC2       HGA4
   25    24    47	5 ;     CG2DC2     CG2DC2       HGA4
   24    25    26	5 ;     CG2DC2     CG2DC2      CG321
   24    25    48	5 ;     CG2DC2     CG2DC2       HGA4
   26    25    48	5 ;      CG321     CG2DC2       HGA4
   25    26    27	5 ;     CG2DC2      CG321      NG311
   25    26    49	5 ;     CG2DC2      CG321       HGA2
   25    26    51	5 ;     CG2DC2      CG321       HGA2
   27    26    49	5 ;      NG311      CG321       HGA2
   27    26    51	5 ;      NG311      CG321       HGA2
   49    26    51	5 ;       HGA2      CG321       HGA2
   28    27    26	5 ;     CG2D1O      NG311      CG321
   28    27    29	5 ;     CG2D1O      NG311     HGPAM1
   26    27    29	5 ;      CG321      NG311     HGPAM1
   23    28    30	5 ;     CG2DC1     CG2D1O       FGA1
   23    28    27	5 ;     CG2DC1     CG2D1O      NG311
   30    28    27	5 ;       FGA1     CG2D1O      NG311
   33    31     4	5 ;       HGP2      NG3P3     CG3C53
   33    31    32	5 ;       HGP2      NG3P3       HGP2
   33    31    50	5 ;       HGP2      NG3P3       HGP2
    4    31    32	5 ;     CG3C53      NG3P3       HGP2
    4    31    50	5 ;     CG3C53      NG3P3       HGP2
   32    31    50	5 ;       HGP2      NG3P3       HGP2

[ dihedrals ]
;	ai	  aj	ak	  al funct			  c0			c1			  c2			c3			  c4			c5
    2     1     6     5	 9 ;      NG3P2     CG3C50     CG3C52     OG3C51
    2     1     6    36	 9 ;      NG3P2     CG3C50     CG3C52       HGA2
    2     1     6    37	 9 ;      NG3P2     CG3C50     CG3C52       HGA2
    7     1     6     5	 9 ;     CG2R61     CG3C50     CG3C52     OG3C51
    7     1     6    36	 9 ;     CG2R61     CG3C50     CG3C52       HGA2
    7     1     6    37	 9 ;     CG2R61     CG3C50     CG3C52       HGA2
   17     1     6     5	 9 ;     CG2R61     CG3C50     CG3C52     OG3C51
   17     1     6    36	 9 ;     CG2R61     CG3C50     CG3C52       HGA2
   17     1     6    37	 9 ;     CG2R61     CG3C50     CG3C52       HGA2
    6     1     2     4	 9 ;     CG3C52     CG3C50      NG3P2     CG3C53
    6     1     2     3	 9 ;     CG3C52     CG3C50      NG3P2       HGP2
    6     1     2    34	 9 ;     CG3C52     CG3C50      NG3P2       HGP2
    7     1     2     4	 9 ;     CG2R61     CG3C50      NG3P2     CG3C53
    7     1     2     3	 9 ;     CG2R61     CG3C50      NG3P2       HGP2
    7     1     2    34	 9 ;     CG2R61     CG3C50      NG3P2       HGP2
   17     1     2     4	 9 ;     CG2R61     CG3C50      NG3P2     CG3C53
   17     1     2     3	 9 ;     CG2R61     CG3C50      NG3P2       HGP2
   17     1     2    34	 9 ;     CG2R61     CG3C50      NG3P2       HGP2
    6     1     7     8	 9 ;     CG3C52     CG3C50     CG2R61     CG2R61
    6     1     7    12	 9 ;     CG3C52     CG3C50     CG2R61     CG2R61
    2     1     7     8	 9 ;      NG3P2     CG3C50     CG2R61     CG2R61
    2     1     7    12	 9 ;      NG3P2     CG3C50     CG2R61     CG2R61
   17     1     7     8	 9 ;     CG2R61     CG3C50     CG2R61     CG2R61
   17     1     7    12	 9 ;     CG2R61     CG3C50     CG2R61     CG2R61
    6     1    17    22	 9 ;     CG3C52     CG3C50     CG2R61     CG2R61
    6     1    17    18	 9 ;     CG3C52     CG3C50     CG2R61     CG2R61
    2     1    17    22	 9 ;      NG3P2     CG3C50     CG2R61     CG2R61
    2     1    17    18	 9 ;      NG3P2     CG3C50     CG2R61     CG2R61
    7     1    17    22	 9 ;     CG2R61     CG3C50     CG2R61     CG2R61
    7     1    17    18	 9 ;     CG2R61     CG3C50     CG2R61     CG2R61
    1     2     4     5	 9 ;     CG3C50      NG3P2     CG3C53     OG3C51
    1     2     4    31	 9 ;     CG3C50      NG3P2     CG3C53      NG3P3
    1     2     4    35	 9 ;     CG3C50      NG3P2     CG3C53       HGA1
    3     2     4     5	 9 ;       HGP2      NG3P2     CG3C53     OG3C51
    3     2     4    31	 9 ;       HGP2      NG3P2     CG3C53      NG3P3
    3     2     4    35	 9 ;       HGP2      NG3P2     CG3C53       HGA1
   34     2     4     5	 9 ;       HGP2      NG3P2     CG3C53     OG3C51
   34     2     4    31	 9 ;       HGP2      NG3P2     CG3C53      NG3P3
   34     2     4    35	 9 ;       HGP2      NG3P2     CG3C53       HGA1
   31     4     5     6	 9 ;      NG3P3     CG3C53     OG3C51     CG3C52
    2     4     5     6	 9 ;      NG3P2     CG3C53     OG3C51     CG3C52
   35     4     5     6	 9 ;       HGA1     CG3C53     OG3C51     CG3C52
    5     4    31    33	 9 ;     OG3C51     CG3C53      NG3P3       HGP2
    5     4    31    32	 9 ;     OG3C51     CG3C53      NG3P3       HGP2
    5     4    31    50	 9 ;     OG3C51     CG3C53      NG3P3       HGP2
    2     4    31    33	 9 ;      NG3P2     CG3C53      NG3P3       HGP2
    2     4    31    32	 9 ;      NG3P2     CG3C53      NG3P3       HGP2
    2     4    31    50	 9 ;      NG3P2     CG3C53      NG3P3       HGP2
   35     4    31    33	 9 ;       HGA1     CG3C53      NG3P3       HGP2
   35     4    31    32	 9 ;       HGA1     CG3C53      NG3P3       HGP2
   35     4    31    50	 9 ;       HGA1     CG3C53      NG3P3       HGP2
    4     5     6     1	 9 ;     CG3C53     OG3C51     CG3C52     CG3C50
    4     5     6    36	 9 ;     CG3C53     OG3C51     CG3C52       HGA2
    4     5     6    37	 9 ;     CG3C53     OG3C51     CG3C52       HGA2
    1     7     8     9	 9 ;     CG3C50     CG2R61     CG2R61     CG2R61
    1     7     8    38	 9 ;     CG3C50     CG2R61     CG2R61      HGR61
   12     7     8     9	 9 ;     CG2R61     CG2R61     CG2R61     CG2R61
   12     7     8    38	 9 ;     CG2R61     CG2R61     CG2R61      HGR61
    1     7    12    11	 9 ;     CG3C50     CG2R61     CG2R61     CG2R61
    1     7    12    41	 9 ;     CG3C50     CG2R61     CG2R61      HGR61
    8     7    12    11	 9 ;     CG2R61     CG2R61     CG2R61     CG2R61
    8     7    12    41	 9 ;     CG2R61     CG2R61     CG2R61      HGR61
    7     8     9    10	 9 ;     CG2R61     CG2R61     CG2R61     CG2R61
    7     8     9    39	 9 ;     CG2R61     CG2R61     CG2R61      HGR61
   38     8     9    10	 9 ;      HGR61     CG2R61     CG2R61     CG2R61
   38     8     9    39	 9 ;      HGR61     CG2R61     CG2R61      HGR61
    8     9    10    13	 9 ;     CG2R61     CG2R61     CG2R61      OG301
    8     9    10    11	 9 ;     CG2R61     CG2R61     CG2R61     CG2R61
   39     9    10    13	 9 ;      HGR61     CG2R61     CG2R61      OG301
   39     9    10    11	 9 ;      HGR61     CG2R61     CG2R61     CG2R61
    9    10    13    14	 9 ;     CG2R61     CG2R61      OG301      CG312
   11    10    13    14	 9 ;     CG2R61     CG2R61      OG301      CG312
    9    10    11    12	 9 ;     CG2R61     CG2R61     CG2R61     CG2R61
    9    10    11    40	 9 ;     CG2R61     CG2R61     CG2R61      HGR61
   13    10    11    12	 9 ;      OG301     CG2R61     CG2R61     CG2R61
   13    10    11    40	 9 ;      OG301     CG2R61     CG2R61      HGR61
   10    11    12     7	 9 ;     CG2R61     CG2R61     CG2R61     CG2R61
   10    11    12    41	 9 ;     CG2R61     CG2R61     CG2R61      HGR61
   40    11    12     7	 9 ;      HGR61     CG2R61     CG2R61     CG2R61
   40    11    12    41	 9 ;      HGR61     CG2R61     CG2R61      HGR61
   10    13    14    16	 9 ;     CG2R61      OG301      CG312       FGA2
   10    13    14    15	 9 ;     CG2R61      OG301      CG312       FGA2
   10    13    14    42	 9 ;     CG2R61      OG301      CG312       HGA7
    1    17    22    21	 9 ;     CG3C50     CG2R61     CG2R61     CG2R61
    1    17    22    46	 9 ;     CG3C50     CG2R61     CG2R61      HGR61
   18    17    22    21	 9 ;     CG2R61     CG2R61     CG2R61     CG2R61
   18    17    22    46	 9 ;     CG2R61     CG2R61     CG2R61      HGR61
   22    17    18    19	 9 ;     CG2R61     CG2R61     CG2R61     CG2R61
   22    17    18    43	 9 ;     CG2R61     CG2R61     CG2R61      HGR61
    1    17    18    19	 9 ;     CG3C50     CG2R61     CG2R61     CG2R61
    1    17    18    43	 9 ;     CG3C50     CG2R61     CG2R61      HGR61
   17    18    19    20	 9 ;     CG2R61     CG2R61     CG2R61     CG2R61
   17    18    19    23	 9 ;     CG2R61     CG2R61     CG2R61     CG2DC1
   43    18    19    20	 9 ;      HGR61     CG2R61     CG2R61     CG2R61
   43    18    19    23	 9 ;      HGR61     CG2R61     CG2R61     CG2DC1
   18    19    20    21	 9 ;     CG2R61     CG2R61     CG2R61     CG2R61
   18    19    20    44	 9 ;     CG2R61     CG2R61     CG2R61      HGR61
   23    19    20    21	 9 ;     CG2DC1     CG2R61     CG2R61     CG2R61
   23    19    20    44	 9 ;     CG2DC1     CG2R61     CG2R61      HGR61
   20    19    23    24	 9 ;     CG2R61     CG2R61     CG2DC1     CG2DC2
   20    19    23    28	 9 ;     CG2R61     CG2R61     CG2DC1     CG2D1O
   18    19    23    24	 9 ;     CG2R61     CG2R61     CG2DC1     CG2DC2
   18    19    23    28	 9 ;     CG2R61     CG2R61     CG2DC1     CG2D1O
   19    20    21    22	 9 ;     CG2R61     CG2R61     CG2R61     CG2R61
   19    20    21    45	 9 ;     CG2R61     CG2R61     CG2R61      HGR61
   44    20    21    22	 9 ;      HGR61     CG2R61     CG2R61     CG2R61
   44    20    21    45	 9 ;      HGR61     CG2R61     CG2R61      HGR61
   20    21    22    17	 9 ;     CG2R61     CG2R61     CG2R61     CG2R61
   20    21    22    46	 9 ;     CG2R61     CG2R61     CG2R61      HGR61
   45    21    22    17	 9 ;      HGR61     CG2R61     CG2R61     CG2R61
   45    21    22    46	 9 ;      HGR61     CG2R61     CG2R61      HGR61
   19    23    24    25	 9 ;     CG2R61     CG2DC1     CG2DC2     CG2DC2
   19    23    24    47	 9 ;     CG2R61     CG2DC1     CG2DC2       HGA4
   28    23    24    25	 9 ;     CG2D1O     CG2DC1     CG2DC2     CG2DC2
   28    23    24    47	 9 ;     CG2D1O     CG2DC1     CG2DC2       HGA4
   19    23    28    30	 9 ;     CG2R61     CG2DC1     CG2D1O       FGA1
   19    23    28    27	 9 ;     CG2R61     CG2DC1     CG2D1O      NG311
   24    23    28    30	 9 ;     CG2DC2     CG2DC1     CG2D1O       FGA1
   24    23    28    27	 9 ;     CG2DC2     CG2DC1     CG2D1O      NG311
   23    24    25    26	 9 ;     CG2DC1     CG2DC2     CG2DC2      CG321
   23    24    25    48	 9 ;     CG2DC1     CG2DC2     CG2DC2       HGA4
   47    24    25    26	 9 ;       HGA4     CG2DC2     CG2DC2      CG321
   47    24    25    48	 9 ;       HGA4     CG2DC2     CG2DC2       HGA4
   24    25    26    27	 9 ;     CG2DC2     CG2DC2      CG321      NG311
   24    25    26    49	 9 ;     CG2DC2     CG2DC2      CG321       HGA2
   24    25    26    51	 9 ;     CG2DC2     CG2DC2      CG321       HGA2
   48    25    26    27	 9 ;       HGA4     CG2DC2      CG321      NG311
   48    25    26    49	 9 ;       HGA4     CG2DC2      CG321       HGA2
   48    25    26    51	 9 ;       HGA4     CG2DC2      CG321       HGA2
   25    26    27    28	 9 ;     CG2DC2      CG321      NG311     CG2D1O
   25    26    27    29	 9 ;     CG2DC2      CG321      NG311     HGPAM1
   49    26    27    28	 9 ;       HGA2      CG321      NG311     CG2D1O
   49    26    27    29	 9 ;       HGA2      CG321      NG311     HGPAM1
   51    26    27    28	 9 ;       HGA2      CG321      NG311     CG2D1O
   51    26    27    29	 9 ;       HGA2      CG321      NG311     HGPAM1
   26    27    28    23	 9 ;      CG321      NG311     CG2D1O     CG2DC1
   26    27    28    30	 9 ;      CG321      NG311     CG2D1O       FGA1
   29    27    28    23	 9 ;     HGPAM1      NG311     CG2D1O     CG2DC1
   29    27    28    30	 9 ;     HGPAM1      NG311     CG2D1O       FGA1

[ dihedrals ]
;	ai	  aj	ak	  al funct			  c0			c1			  c2			c3
   28    23    27    30	 2

