Grunge ROck MAChoS
   66
    1LIG      S    1  -0.887   0.310  -1.870
    1LIG     O1    2  -0.936   0.442  -1.829
    1LIG     O2    3  -0.746   0.286  -1.890
    1LIG     C1    4  -0.952   0.189  -1.757
    1LIG     C2    5  -1.106   0.189  -1.751
    1LIG     C3    6  -1.167   0.177  -1.893
    1LIG     C4    7  -1.122   0.282  -1.999
    1LIG     C5    8  -0.971   0.277  -2.021
    1LIG     C6    9  -1.160   0.303  -1.661
    1LIG     C7   10  -1.189   0.269  -1.518
    1LIG     C8   11  -1.184   0.136  -1.472
    1LIG     C9   12  -1.222   0.101  -1.341
    1LIG    C10   13  -1.279   0.198  -1.258
    1LIG    C11   14  -1.274   0.332  -1.299
    1LIG    C12   15  -1.232   0.367  -1.428
    1LIG     O3   16  -1.214  -0.032  -1.314
    1LIG    C13   17  -1.124  -0.079  -1.214
    1LIG     F1   18  -1.029   0.007  -1.175
    1LIG     F2   19  -1.196  -0.118  -1.106
    1LIG     F3   20  -1.061  -0.189  -1.263
    1LIG     N1   21  -1.327   0.170  -1.129
    1LIG     H1   22  -1.362   0.250  -1.079
    1LIG     H2   23  -1.391   0.092  -1.123
    1LIG     O4   24  -1.128   0.051  -1.949
    1LIG     H3   25  -1.199   0.012  -2.004
    1LIG     N2   26  -1.174   0.420  -1.965
    1LIG     H4   27  -1.147   0.443  -1.868
    1LIG     H5   28  -1.131   0.491  -2.027
    1LIG    C14   29  -1.321   0.447  -1.977
    1LIG    C15   30  -1.382   0.495  -1.850
    1LIG    C16   31  -1.469   0.411  -1.779
    1LIG    C17   32  -1.518   0.446  -1.653
    1LIG    C18   33  -1.474   0.568  -1.598
    1LIG    C19   34  -1.391   0.655  -1.669
    1LIG    C20   35  -1.347   0.619  -1.796
    1LIG    C21   36  -1.615   0.356  -1.574
    1LIG    C22   37  -1.556   0.217  -1.538
    1LIG    C23   38  -1.653   0.425  -1.442
    1LIG    C24   39  -1.742   0.330  -1.658
    1LIG    HC2   40  -0.913   0.210  -1.657
    1LIG    HC3   41  -0.918   0.090  -1.788
    1LIG     HC   42  -1.133   0.096  -1.700
    1LIG    HC1   43  -1.276   0.180  -1.885
    1LIG    HC4   44  -1.168   0.254  -2.093
    1LIG    HC5   45  -0.944   0.177  -2.056
    1LIG    HC6   46  -0.943   0.351  -2.096
    1LIG    HC7   47  -1.086   0.383  -1.662
    1LIG    HC8   48  -1.252   0.341  -1.707
    1LIG    HC9   49  -1.149   0.059  -1.539
    1LIG   HC10   50  -1.304   0.410  -1.230
    1LIG   HC11   51  -1.232   0.470  -1.458
    1LIG   HC12   52  -1.370   0.354  -2.007
    1LIG   HC13   53  -1.337   0.522  -2.055
    1LIG   HC14   54  -1.500   0.318  -1.824
    1LIG   HC15   55  -1.505   0.595  -1.498
    1LIG   HC16   56  -1.362   0.749  -1.626
    1LIG   HC17   57  -1.285   0.688  -1.853
    1LIG   HC18   58  -1.787   0.426  -1.685
    1LIG   HC19   59  -1.716   0.275  -1.748
    1LIG   HC20   60  -1.813   0.272  -1.599
    1LIG   HC21   61  -1.724   0.363  -1.387
    1LIG   HC22   62  -1.564   0.440  -1.381
    1LIG   HC23   63  -1.699   0.521  -1.463
    1LIG   HC24   64  -1.465   0.230  -1.479
    1LIG   HC25   65  -1.629   0.160  -1.481
    1LIG   HC26   66  -1.532   0.163  -1.630
   0.00000   0.00000   0.00000
