Good ROcking Metal Altar for Chronical Sinners
  109
    1LIG     C1    1  -1.851   0.527  -1.577
    1LIG     C2    2  -2.005   0.502  -1.543
    1LIG     C3    3  -2.084   0.371  -1.521
    1LIG     C4    4  -2.220   0.392  -1.454
    1LIG     C5    5  -2.118   0.310  -1.661
    1LIG     C6    6  -1.783   0.385  -1.533
    1LIG     O1    7  -1.740   0.308  -1.648
    1LIG     H1    8  -1.685   0.364  -1.704
    1LIG     C7    9  -1.671   0.358  -1.428
    1LIG     C8   10  -1.700   0.344  -1.280
    1LIG     C9   11  -1.577   0.401  -1.214
    1LIG     O2   12  -1.555   0.393  -1.093
    1LIG    C10   13  -1.482   0.469  -1.308
    1LIG    C11   14  -1.540   0.442  -1.446
    1LIG    C12   15  -1.439   0.361  -1.529
    1LIG     O3   16  -1.462   0.250  -1.577
    1LIG     N1   17  -1.317   0.421  -1.554
    1LIG     H2   18  -1.312   0.521  -1.534
    1LIG    C13   19  -1.232   0.364  -1.658
    1LIG    C14   20  -1.116   0.457  -1.704
    1LIG    C15   21  -1.170   0.596  -1.738
    1LIG    C16   22  -0.998   0.463  -1.606
    1LIG    C17   23  -1.182   0.222  -1.623
    1LIG     O4   24  -1.118   0.192  -1.523
    1LIG     N2   25  -1.210   0.112  -1.710
    1LIG     H3   26  -1.289   0.140  -1.770
    1LIG     H4   27  -1.125   0.103  -1.768
    1LIG    C18   28  -1.234  -0.019  -1.644
    1LIG    C19   29  -1.104  -0.097  -1.631
    1LIG    C20   30  -1.009  -0.093  -1.752
    1LIG    C21   31  -0.888  -0.002  -1.733
    1LIG     N3   32  -1.808   0.570  -1.711
    1LIG    C22   33  -1.733   0.683  -1.743
    1LIG     O5   34  -1.787   0.775  -1.805
    1LIG     H5   35  -1.758   0.493  -1.755
    1LIG    C23   36  -1.577   0.684  -1.710
    1LIG     N4   37  -1.499   0.639  -1.825
    1LIG    C24   38  -1.496   0.513  -1.879
    1LIG     O6   39  -1.569   0.424  -1.836
    1LIG     H6   40  -1.439   0.709  -1.867
    1LIG    C25   41  -1.407   0.492  -2.008
    1LIG     N5   42  -1.441   0.368  -2.094
    1LIG    C26   43  -1.389   0.241  -2.076
    1LIG     O7   44  -1.338   0.203  -1.969
    1LIG    C27   45  -1.406   0.139  -2.187
    1LIG     H7   46  -1.466   0.391  -2.190
    1LIG    C28   47  -1.399   0.624  -2.099
    1LIG    C29   48  -1.267   0.677  -2.168
    1LIG    C30   49  -1.138   0.668  -2.086
    1LIG    C31   50  -1.236   0.600  -2.300
    1LIG    C32   51  -1.535   0.827  -1.667
    1LIG    C33   52  -1.575   0.875  -1.527
    1LIG      S   53  -1.699   1.008  -1.523
    1LIG    C34   54  -1.666   1.082  -1.685
    1LIG     H8   55  -1.820   0.615  -1.524
    1LIG     H9   56  -2.057   0.550  -1.624
    1LIG    H10   57  -2.002   0.532  -1.441
    1LIG    H11   58  -2.023   0.309  -1.459
    1LIG    H12   59  -2.281   0.453  -1.516
    1LIG    H13   60  -2.205   0.439  -1.359
    1LIG    H14   61  -2.267   0.297  -1.439
    1LIG    H15   62  -2.179   0.379  -1.716
    1LIG    H16   63  -2.170   0.218  -1.648
    1LIG    H17   64  -2.027   0.293  -1.715
    1LIG    H18   65  -1.870   0.360  -1.476
    1LIG    H19   66  -1.658   0.257  -1.460
    1LIG    H20   67  -1.713   0.241  -1.254
    1LIG    H21   68  -1.790   0.393  -1.251
    1LIG    H22   69  -1.478   0.574  -1.288
    1LIG    H23   70  -1.382   0.432  -1.297
    1LIG    H24   71  -1.560   0.534  -1.496
    1LIG    H25   72  -1.295   0.356  -1.744
    1LIG    H26   73  -1.075   0.413  -1.793
    1LIG    H27   74  -1.211   0.641  -1.650
    1LIG    H28   75  -1.246   0.588  -1.813
    1LIG    H29   76  -1.090   0.657  -1.776
    1LIG    H30   77  -1.030   0.506  -1.514
    1LIG    H31   78  -0.920   0.523  -1.648
    1LIG    H32   79  -0.961   0.364  -1.589
    1LIG    H33   80  -1.304  -0.075  -1.702
    1LIG    H34   81  -1.274  -0.001  -1.546
    1LIG    H35   82  -1.051  -0.058  -1.547
    1LIG    H36   83  -1.133  -0.200  -1.622
    1LIG    H37   84  -0.974  -0.193  -1.770
    1LIG    H38   85  -1.066  -0.053  -1.834
    1LIG    H39   86  -0.829  -0.039  -1.652
    1LIG    H40   87  -0.921   0.097  -1.712
    1LIG    H41   88  -0.830  -0.002  -1.823
    1LIG    H42   89  -1.559   0.617  -1.629
    1LIG    H43   90  -1.310   0.472  -1.968
    1LIG    H44   91  -1.452   0.186  -2.271
    1LIG    H45   92  -1.469   0.059  -2.153
    1LIG    H46   93  -1.311   0.100  -2.214
    1LIG    H47   94  -1.469   0.608  -2.179
    1LIG    H48   95  -1.416   0.700  -2.026
    1LIG    H49   96  -1.291   0.780  -2.183
    1LIG    H50   97  -1.113   0.565  -2.070
    1LIG    H51   98  -1.153   0.716  -1.991
    1LIG    H52   99  -1.059   0.717  -2.138
    1LIG    H53  100  -1.213   0.498  -2.277
    1LIG    H54  101  -1.152   0.645  -2.349
    1LIG    H55  102  -1.321   0.604  -2.365
    1LIG    H56  103  -1.577   0.896  -1.737
    1LIG    H57  104  -1.428   0.824  -1.665
    1LIG    H58  105  -1.487   0.910  -1.477
    1LIG    H59  106  -1.620   0.791  -1.479
    1LIG    H60  107  -1.732   1.164  -1.701
    1LIG    H61  108  -1.683   1.008  -1.761
    1LIG    H62  109  -1.565   1.115  -1.690
   0.00000   0.00000   0.00000
