; Created by cgenff_charmm2gmx.py

[ moleculetype ]
; Name			   nrexcl
LIG				 3

[ atoms ]
;	 nr		  type	resnr residue  atom   cgnr	   charge		mass  typeB    chargeB		massB
; residue	 1 LIG rtp LIG q	qsum
     1      CG311      1    LIG     C1      1     -0.064     12.011   ;
     2      CG321      1    LIG     C2      2     -0.100     12.011   ;
     3      CG311      1    LIG     C3      3     -0.109     12.011   ;
     4      CG331      1    LIG     C4      4     -0.268     12.011   ;
     5      CG331      1    LIG     C5      5     -0.268     12.011   ;
     6      CG311      1    LIG     C6      6      0.198     12.011   ;
     7      OG311      1    LIG     O1      7     -0.642     15.999   ;
     8       HGP1      1    LIG     H1      8      0.418      1.008   ;
     9     CG3C51      1    LIG     C7      9     -0.238     12.011   ;
    10     CG3C52      1    LIG     C8     10     -0.049     12.011   ;
    11      CG2O5      1    LIG     C9     11      0.284     12.011   ;
    12      OG2D3      1    LIG     O2     12     -0.424     15.999   ;
    13     CG3C52      1    LIG    C10     13     -0.074     12.011   ;
    14     CG3C51      1    LIG    C11     14     -0.142     12.011   ;
    15      CG2O1      1    LIG    C12     15      0.599     12.011   ;
    16      OG2D1      1    LIG     O3     16     -0.497     15.999   ;
    17      NG2S1      1    LIG     N1     17     -0.481     14.007   ;
    18       HGP1      1    LIG     H2     18      0.263      1.008   ;
    19      CG311      1    LIG    C13     19      0.101     12.011   ;
    20      CG311      1    LIG    C14     20     -0.078     12.011   ;
    21      CG331      1    LIG    C15     21     -0.269     12.011   ;
    22      CG331      1    LIG    C16     22     -0.269     12.011   ;
    23      CG2O1      1    LIG    C17     23      0.573     12.011   ;
    24      OG2D1      1    LIG     O4     24     -0.529     15.999   ;
    25      NG3P2      1    LIG     N2     25     -0.073     14.007   ;
    26       HGP2      1    LIG     H3     26      0.312      1.008   ;
    27       HGP2      1    LIG     H4     27      0.312      1.008   ;
    28      CG324      1    LIG    C18     28      0.138     12.011   ;
    29      CG321      1    LIG    C19     29     -0.169     12.011   ;
    30      CG321      1    LIG    C20     30     -0.132     12.011   ;
    31      CG331      1    LIG    C21     31     -0.264     12.011   ;
    32      NG2S1      1    LIG     N3     32     -0.401     14.007   ;
    33      CG2O1      1    LIG    C22     33      0.494     12.011   ;
    34      OG2D1      1    LIG     O5     34     -0.509     15.999   ;
    35       HGP1      1    LIG     H5     35      0.269      1.008   ;
    36      CG311      1    LIG    C23     36      0.064     12.011   ;
    37      NG2S1      1    LIG     N4     37     -0.461     14.007   ;
    38      CG2O1      1    LIG    C24     38      0.512     12.011   ;
    39      OG2D1      1    LIG     O6     39     -0.509     15.999   ;
    40       HGP1      1    LIG     H6     40      0.316      1.008   ;
    41      CG311      1    LIG    C25     41      0.059     12.011   ;
    42      NG2S1      1    LIG     N5     42     -0.423     14.007   ;
    43      CG2O1      1    LIG    C26     43      0.506     12.011   ;
    44      OG2D1      1    LIG     O7     44     -0.509     15.999   ;
    45      CG331      1    LIG    C27     45     -0.270     12.011   ;
    46       HGP1      1    LIG     H7     46      0.308      1.008   ;
    47      CG321      1    LIG    C28     47     -0.178     12.011   ;
    48      CG311      1    LIG    C29     48     -0.099     12.011   ;
    49      CG331      1    LIG    C30     49     -0.268     12.011   ;
    50      CG331      1    LIG    C31     50     -0.268     12.011   ;
    51      CG321      1    LIG    C32     51     -0.182     12.011   ;
    52      CG321      1    LIG    C33     52     -0.135     12.011   ;
    53      SG311      1    LIG      S     53     -0.105     32.060   ;
    54      CG331      1    LIG    C34     54     -0.220     12.011   ;
    55       HGA1      1    LIG     H8     55      0.090      1.008   ;
    56       HGA2      1    LIG     H9     56      0.090      1.008   ;
    57       HGA2      1    LIG    H10     57      0.090      1.008   ;
    58       HGA1      1    LIG    H11     58      0.090      1.008   ;
    59       HGA3      1    LIG    H12     59      0.090      1.008   ;
    60       HGA3      1    LIG    H13     60      0.090      1.008   ;
    61       HGA3      1    LIG    H14     61      0.090      1.008   ;
    62       HGA3      1    LIG    H15     62      0.090      1.008   ;
    63       HGA3      1    LIG    H16     63      0.090      1.008   ;
    64       HGA3      1    LIG    H17     64      0.090      1.008   ;
    65       HGA1      1    LIG    H18     65      0.090      1.008   ;
    66       HGA1      1    LIG    H19     66      0.090      1.008   ;
    67       HGA2      1    LIG    H20     67      0.090      1.008   ;
    68       HGA2      1    LIG    H21     68      0.090      1.008   ;
    69       HGA2      1    LIG    H22     69      0.090      1.008   ;
    70       HGA2      1    LIG    H23     70      0.090      1.008   ;
    71       HGA1      1    LIG    H24     71      0.090      1.008   ;
    72       HGA1      1    LIG    H25     72      0.090      1.008   ;
    73       HGA1      1    LIG    H26     73      0.090      1.008   ;
    74       HGA3      1    LIG    H27     74      0.090      1.008   ;
    75       HGA3      1    LIG    H28     75      0.090      1.008   ;
    76       HGA3      1    LIG    H29     76      0.090      1.008   ;
    77       HGA3      1    LIG    H30     77      0.090      1.008   ;
    78       HGA3      1    LIG    H31     78      0.090      1.008   ;
    79       HGA3      1    LIG    H32     79      0.090      1.008   ;
    80       HGA2      1    LIG    H33     80      0.090      1.008   ;
    81       HGA2      1    LIG    H34     81      0.090      1.008   ;
    82       HGA2      1    LIG    H35     82      0.090      1.008   ;
    83       HGA2      1    LIG    H36     83      0.090      1.008   ;
    84       HGA2      1    LIG    H37     84      0.090      1.008   ;
    85       HGA2      1    LIG    H38     85      0.090      1.008   ;
    86       HGA3      1    LIG    H39     86      0.090      1.008   ;
    87       HGA3      1    LIG    H40     87      0.090      1.008   ;
    88       HGA3      1    LIG    H41     88      0.090      1.008   ;
    89       HGA1      1    LIG    H42     89      0.090      1.008   ;
    90       HGA1      1    LIG    H43     90      0.090      1.008   ;
    91       HGA3      1    LIG    H44     91      0.090      1.008   ;
    92       HGA3      1    LIG    H45     92      0.090      1.008   ;
    93       HGA3      1    LIG    H46     93      0.090      1.008   ;
    94       HGA2      1    LIG    H47     94      0.090      1.008   ;
    95       HGA2      1    LIG    H48     95      0.090      1.008   ;
    96       HGA1      1    LIG    H49     96      0.090      1.008   ;
    97       HGA3      1    LIG    H50     97      0.090      1.008   ;
    98       HGA3      1    LIG    H51     98      0.090      1.008   ;
    99       HGA3      1    LIG    H52     99      0.090      1.008   ;
   100       HGA3      1    LIG    H53    100      0.090      1.008   ;
   101       HGA3      1    LIG    H54    101      0.090      1.008   ;
   102       HGA3      1    LIG    H55    102      0.090      1.008   ;
   103       HGA2      1    LIG    H56    103      0.090      1.008   ;
   104       HGA2      1    LIG    H57    104      0.090      1.008   ;
   105       HGA2      1    LIG    H58    105      0.090      1.008   ;
   106       HGA2      1    LIG    H59    106      0.090      1.008   ;
   107       HGA3      1    LIG    H60    107      0.090      1.008   ;
   108       HGA3      1    LIG    H61    108      0.090      1.008   ;
   109       HGA3      1    LIG    H62    109      0.090      1.008   ;

[ bonds ]
;	ai	  aj funct			  c0			c1			  c2			c3
    1    32	 1 ;       CG311      NG2S1
    1     2	 1 ;       CG311      CG321
    1     6	 1 ;       CG311      CG311
    1    55	 1 ;       CG311       HGA1
    2     3	 1 ;       CG321      CG311
    2    56	 1 ;       CG321       HGA2
    2    57	 1 ;       CG321       HGA2
    3     5	 1 ;       CG311      CG331
    3     4	 1 ;       CG311      CG331
    3    58	 1 ;       CG311       HGA1
    4    59	 1 ;       CG331       HGA3
    4    60	 1 ;       CG331       HGA3
    4    61	 1 ;       CG331       HGA3
    5    62	 1 ;       CG331       HGA3
    5    63	 1 ;       CG331       HGA3
    5    64	 1 ;       CG331       HGA3
    6     7	 1 ;       CG311      OG311
    6     9	 1 ;       CG311     CG3C51
    6    65	 1 ;       CG311       HGA1
    7     8	 1 ;       OG311       HGP1
    9    14	 1 ;      CG3C51     CG3C51
    9    10	 1 ;      CG3C51     CG3C52
    9    66	 1 ;      CG3C51       HGA1
   10    11	 1 ;      CG3C52      CG2O5
   10    67	 1 ;      CG3C52       HGA2
   10    68	 1 ;      CG3C52       HGA2
   11    13	 1 ;       CG2O5     CG3C52
   11    12	 1 ;       CG2O5      OG2D3
   13    14	 1 ;      CG3C52     CG3C51
   13    69	 1 ;      CG3C52       HGA2
   13    70	 1 ;      CG3C52       HGA2
   14    15	 1 ;      CG3C51      CG2O1
   14    71	 1 ;      CG3C51       HGA1
   15    16	 1 ;       CG2O1      OG2D1
   15    17	 1 ;       CG2O1      NG2S1
   17    19	 1 ;       NG2S1      CG311
   17    18	 1 ;       NG2S1       HGP1
   19    20	 1 ;       CG311      CG311
   19    23	 1 ;       CG311      CG2O1
   19    72	 1 ;       CG311       HGA1
   20    21	 1 ;       CG311      CG331
   20    22	 1 ;       CG311      CG331
   20    73	 1 ;       CG311       HGA1
   21    74	 1 ;       CG331       HGA3
   21    75	 1 ;       CG331       HGA3
   21    76	 1 ;       CG331       HGA3
   22    77	 1 ;       CG331       HGA3
   22    78	 1 ;       CG331       HGA3
   22    79	 1 ;       CG331       HGA3
   23    25	 1 ;       CG2O1      NG3P2
   23    24	 1 ;       CG2O1      OG2D1
   25    26	 1 ;       NG3P2       HGP2
   25    27	 1 ;       NG3P2       HGP2
   25    28	 1 ;       NG3P2      CG324
   28    29	 1 ;       CG324      CG321
   28    80	 1 ;       CG324       HGA2
   28    81	 1 ;       CG324       HGA2
   29    30	 1 ;       CG321      CG321
   29    82	 1 ;       CG321       HGA2
   29    83	 1 ;       CG321       HGA2
   30    31	 1 ;       CG321      CG331
   30    84	 1 ;       CG321       HGA2
   30    85	 1 ;       CG321       HGA2
   31    86	 1 ;       CG331       HGA3
   31    87	 1 ;       CG331       HGA3
   31    88	 1 ;       CG331       HGA3
   32    35	 1 ;       NG2S1       HGP1
   32    33	 1 ;       NG2S1      CG2O1
   33    34	 1 ;       CG2O1      OG2D1
   33    36	 1 ;       CG2O1      CG311
   36    37	 1 ;       CG311      NG2S1
   36    51	 1 ;       CG311      CG321
   36    89	 1 ;       CG311       HGA1
   37    38	 1 ;       NG2S1      CG2O1
   37    40	 1 ;       NG2S1       HGP1
   38    41	 1 ;       CG2O1      CG311
   38    39	 1 ;       CG2O1      OG2D1
   41    47	 1 ;       CG311      CG321
   41    42	 1 ;       CG311      NG2S1
   41    90	 1 ;       CG311       HGA1
   42    46	 1 ;       NG2S1       HGP1
   42    43	 1 ;       NG2S1      CG2O1
   43    45	 1 ;       CG2O1      CG331
   43    44	 1 ;       CG2O1      OG2D1
   45    91	 1 ;       CG331       HGA3
   45    92	 1 ;       CG331       HGA3
   45    93	 1 ;       CG331       HGA3
   47    48	 1 ;       CG321      CG311
   47    94	 1 ;       CG321       HGA2
   47    95	 1 ;       CG321       HGA2
   48    50	 1 ;       CG311      CG331
   48    49	 1 ;       CG311      CG331
   48    96	 1 ;       CG311       HGA1
   49    97	 1 ;       CG331       HGA3
   49    98	 1 ;       CG331       HGA3
   49    99	 1 ;       CG331       HGA3
   50   100	 1 ;       CG331       HGA3
   50   101	 1 ;       CG331       HGA3
   50   102	 1 ;       CG331       HGA3
   51    52	 1 ;       CG321      CG321
   51   103	 1 ;       CG321       HGA2
   51   104	 1 ;       CG321       HGA2
   52    53	 1 ;       CG321      SG311
   52   105	 1 ;       CG321       HGA2
   52   106	 1 ;       CG321       HGA2
   53    54	 1 ;       SG311      CG331
   54   107	 1 ;       CG331       HGA3
   54   108	 1 ;       CG331       HGA3
   54   109	 1 ;       CG331       HGA3

[ pairs ]
;	ai	  aj funct			  c0			c1			  c2			c3
    1     5	 1
    1     4	 1
    1    58	 1
    1     8	 1
    1    14	 1
    1    10	 1
    1    66	 1
    1    34	 1
    1    36	 1
    2    35	 1
    2    33	 1
    2     7	 1
    2     9	 1
    2    65	 1
    2    62	 1
    2    63	 1
    2    64	 1
    2    59	 1
    2    60	 1
    2    61	 1
    3    32	 1
    3     6	 1
    3    55	 1
    4    56	 1
    4    57	 1
    4    62	 1
    4    63	 1
    4    64	 1
    5    56	 1
    5    57	 1
    5    59	 1
    5    60	 1
    5    61	 1
    6    35	 1
    6    33	 1
    6    56	 1
    6    57	 1
    6    15	 1
    6    13	 1
    6    71	 1
    6    11	 1
    6    67	 1
    6    68	 1
    7    32	 1
    7    55	 1
    7    14	 1
    7    10	 1
    7    66	 1
    8     9	 1
    8    65	 1
    9    32	 1
    9    55	 1
    9    12	 1
    9    69	 1
    9    70	 1
    9    16	 1
    9    17	 1
   10    65	 1
   10    15	 1
   10    71	 1
   10    69	 1
   10    70	 1
   11    66	 1
   11    15	 1
   11    71	 1
   12    67	 1
   12    68	 1
   12    14	 1
   12    69	 1
   12    70	 1
   13    66	 1
   13    67	 1
   13    68	 1
   13    16	 1
   13    17	 1
   14    65	 1
   14    67	 1
   14    68	 1
   14    19	 1
   14    18	 1
   15    66	 1
   15    69	 1
   15    70	 1
   15    20	 1
   15    23	 1
   15    72	 1
   16    71	 1
   16    19	 1
   16    18	 1
   17    71	 1
   17    21	 1
   17    22	 1
   17    73	 1
   17    25	 1
   17    24	 1
   18    20	 1
   18    23	 1
   18    72	 1
   19    74	 1
   19    75	 1
   19    76	 1
   19    77	 1
   19    78	 1
   19    79	 1
   19    26	 1
   19    27	 1
   19    28	 1
   20    25	 1
   20    24	 1
   21    23	 1
   21    72	 1
   21    77	 1
   21    78	 1
   21    79	 1
   22    23	 1
   22    72	 1
   22    74	 1
   22    75	 1
   22    76	 1
   23    73	 1
   23    29	 1
   23    80	 1
   23    81	 1
   24    72	 1
   24    26	 1
   24    27	 1
   24    28	 1
   25    72	 1
   25    30	 1
   25    82	 1
   25    83	 1
   26    29	 1
   26    80	 1
   26    81	 1
   27    29	 1
   27    80	 1
   27    81	 1
   28    31	 1
   28    84	 1
   28    85	 1
   29    86	 1
   29    87	 1
   29    88	 1
   30    80	 1
   30    81	 1
   31    82	 1
   31    83	 1
   32    56	 1
   32    57	 1
   32    65	 1
   32    37	 1
   32    51	 1
   32    89	 1
   33    55	 1
   33    38	 1
   33    40	 1
   33    52	 1
   33   103	 1
   33   104	 1
   34    35	 1
   34    37	 1
   34    51	 1
   34    89	 1
   35    55	 1
   35    36	 1
   36    41	 1
   36    39	 1
   36    53	 1
   36   105	 1
   36   106	 1
   37    52	 1
   37   103	 1
   37   104	 1
   37    47	 1
   37    42	 1
   37    90	 1
   38    51	 1
   38    89	 1
   38    48	 1
   38    94	 1
   38    95	 1
   38    46	 1
   38    43	 1
   39    40	 1
   39    47	 1
   39    42	 1
   39    90	 1
   40    51	 1
   40    89	 1
   40    41	 1
   41    45	 1
   41    44	 1
   41    50	 1
   41    49	 1
   41    96	 1
   42    48	 1
   42    94	 1
   42    95	 1
   42    91	 1
   42    92	 1
   42    93	 1
   43    47	 1
   43    90	 1
   44    46	 1
   44    91	 1
   44    92	 1
   44    93	 1
   45    46	 1
   46    47	 1
   46    90	 1
   47   100	 1
   47   101	 1
   47   102	 1
   47    97	 1
   47    98	 1
   47    99	 1
   48    90	 1
   49    94	 1
   49    95	 1
   49   100	 1
   49   101	 1
   49   102	 1
   50    94	 1
   50    95	 1
   50    97	 1
   50    98	 1
   50    99	 1
   51    54	 1
   52    89	 1
   52   107	 1
   52   108	 1
   52   109	 1
   53   103	 1
   53   104	 1
   54   105	 1
   54   106	 1
   55    56	 1
   55    57	 1
   55    65	 1
   56    58	 1
   57    58	 1
   58    62	 1
   58    63	 1
   58    64	 1
   58    59	 1
   58    60	 1
   58    61	 1
   65    66	 1
   66    71	 1
   66    67	 1
   66    68	 1
   69    71	 1
   70    71	 1
   72    73	 1
   73    74	 1
   73    75	 1
   73    76	 1
   73    77	 1
   73    78	 1
   73    79	 1
   80    82	 1
   80    83	 1
   81    82	 1
   81    83	 1
   82    84	 1
   82    85	 1
   83    84	 1
   83    85	 1
   84    86	 1
   84    87	 1
   84    88	 1
   85    86	 1
   85    87	 1
   85    88	 1
   89   103	 1
   89   104	 1
   90    94	 1
   90    95	 1
   94    96	 1
   95    96	 1
   96   100	 1
   96   101	 1
   96   102	 1
   96    97	 1
   96    98	 1
   96    99	 1
  103   105	 1
  103   106	 1
  104   105	 1
  104   106	 1

[ angles ]
;	ai	  aj	ak funct			c0			  c1			c2			  c3
   32     1     2	5 ;      NG2S1      CG311      CG321
   32     1     6	5 ;      NG2S1      CG311      CG311
   32     1    55	5 ;      NG2S1      CG311       HGA1
    2     1     6	5 ;      CG321      CG311      CG311
    2     1    55	5 ;      CG321      CG311       HGA1
    6     1    55	5 ;      CG311      CG311       HGA1
    1     2     3	5 ;      CG311      CG321      CG311
    1     2    56	5 ;      CG311      CG321       HGA2
    1     2    57	5 ;      CG311      CG321       HGA2
    3     2    56	5 ;      CG311      CG321       HGA2
    3     2    57	5 ;      CG311      CG321       HGA2
   56     2    57	5 ;       HGA2      CG321       HGA2
    5     3     2	5 ;      CG331      CG311      CG321
    5     3     4	5 ;      CG331      CG311      CG331
    5     3    58	5 ;      CG331      CG311       HGA1
    2     3     4	5 ;      CG321      CG311      CG331
    2     3    58	5 ;      CG321      CG311       HGA1
    4     3    58	5 ;      CG331      CG311       HGA1
    3     4    59	5 ;      CG311      CG331       HGA3
    3     4    60	5 ;      CG311      CG331       HGA3
    3     4    61	5 ;      CG311      CG331       HGA3
   59     4    60	5 ;       HGA3      CG331       HGA3
   59     4    61	5 ;       HGA3      CG331       HGA3
   60     4    61	5 ;       HGA3      CG331       HGA3
    3     5    62	5 ;      CG311      CG331       HGA3
    3     5    63	5 ;      CG311      CG331       HGA3
    3     5    64	5 ;      CG311      CG331       HGA3
   62     5    63	5 ;       HGA3      CG331       HGA3
   62     5    64	5 ;       HGA3      CG331       HGA3
   63     5    64	5 ;       HGA3      CG331       HGA3
    7     6     1	5 ;      OG311      CG311      CG311
    7     6     9	5 ;      OG311      CG311     CG3C51
    7     6    65	5 ;      OG311      CG311       HGA1
    1     6     9	5 ;      CG311      CG311     CG3C51
    1     6    65	5 ;      CG311      CG311       HGA1
    9     6    65	5 ;     CG3C51      CG311       HGA1
    8     7     6	5 ;       HGP1      OG311      CG311
    6     9    14	5 ;      CG311     CG3C51     CG3C51
    6     9    10	5 ;      CG311     CG3C51     CG3C52
    6     9    66	5 ;      CG311     CG3C51       HGA1
   14     9    10	5 ;     CG3C51     CG3C51     CG3C52
   14     9    66	5 ;     CG3C51     CG3C51       HGA1
   10     9    66	5 ;     CG3C52     CG3C51       HGA1
    9    10    11	5 ;     CG3C51     CG3C52      CG2O5
    9    10    67	5 ;     CG3C51     CG3C52       HGA2
    9    10    68	5 ;     CG3C51     CG3C52       HGA2
   11    10    67	5 ;      CG2O5     CG3C52       HGA2
   11    10    68	5 ;      CG2O5     CG3C52       HGA2
   67    10    68	5 ;       HGA2     CG3C52       HGA2
   13    11    10	5 ;     CG3C52      CG2O5     CG3C52
   13    11    12	5 ;     CG3C52      CG2O5      OG2D3
   10    11    12	5 ;     CG3C52      CG2O5      OG2D3
   14    13    11	5 ;     CG3C51     CG3C52      CG2O5
   14    13    69	5 ;     CG3C51     CG3C52       HGA2
   14    13    70	5 ;     CG3C51     CG3C52       HGA2
   11    13    69	5 ;      CG2O5     CG3C52       HGA2
   11    13    70	5 ;      CG2O5     CG3C52       HGA2
   69    13    70	5 ;       HGA2     CG3C52       HGA2
   15    14     9	5 ;      CG2O1     CG3C51     CG3C51
   15    14    13	5 ;      CG2O1     CG3C51     CG3C52
   15    14    71	5 ;      CG2O1     CG3C51       HGA1
    9    14    13	5 ;     CG3C51     CG3C51     CG3C52
    9    14    71	5 ;     CG3C51     CG3C51       HGA1
   13    14    71	5 ;     CG3C52     CG3C51       HGA1
   16    15    17	5 ;      OG2D1      CG2O1      NG2S1
   16    15    14	5 ;      OG2D1      CG2O1     CG3C51
   17    15    14	5 ;      NG2S1      CG2O1     CG3C51
   19    17    18	5 ;      CG311      NG2S1       HGP1
   19    17    15	5 ;      CG311      NG2S1      CG2O1
   18    17    15	5 ;       HGP1      NG2S1      CG2O1
   20    19    23	5 ;      CG311      CG311      CG2O1
   20    19    17	5 ;      CG311      CG311      NG2S1
   20    19    72	5 ;      CG311      CG311       HGA1
   23    19    17	5 ;      CG2O1      CG311      NG2S1
   23    19    72	5 ;      CG2O1      CG311       HGA1
   17    19    72	5 ;      NG2S1      CG311       HGA1
   21    20    19	5 ;      CG331      CG311      CG311
   21    20    22	5 ;      CG331      CG311      CG331
   21    20    73	5 ;      CG331      CG311       HGA1
   19    20    22	5 ;      CG311      CG311      CG331
   19    20    73	5 ;      CG311      CG311       HGA1
   22    20    73	5 ;      CG331      CG311       HGA1
   20    21    74	5 ;      CG311      CG331       HGA3
   20    21    75	5 ;      CG311      CG331       HGA3
   20    21    76	5 ;      CG311      CG331       HGA3
   74    21    75	5 ;       HGA3      CG331       HGA3
   74    21    76	5 ;       HGA3      CG331       HGA3
   75    21    76	5 ;       HGA3      CG331       HGA3
   20    22    77	5 ;      CG311      CG331       HGA3
   20    22    78	5 ;      CG311      CG331       HGA3
   20    22    79	5 ;      CG311      CG331       HGA3
   77    22    78	5 ;       HGA3      CG331       HGA3
   77    22    79	5 ;       HGA3      CG331       HGA3
   78    22    79	5 ;       HGA3      CG331       HGA3
   25    23    19	5 ;      NG3P2      CG2O1      CG311
   25    23    24	5 ;      NG3P2      CG2O1      OG2D1
   19    23    24	5 ;      CG311      CG2O1      OG2D1
   26    25    27	5 ;       HGP2      NG3P2       HGP2
   26    25    28	5 ;       HGP2      NG3P2      CG324
   26    25    23	5 ;       HGP2      NG3P2      CG2O1
   27    25    28	5 ;       HGP2      NG3P2      CG324
   27    25    23	5 ;       HGP2      NG3P2      CG2O1
   28    25    23	5 ;      CG324      NG3P2      CG2O1
   25    28    29	5 ;      NG3P2      CG324      CG321
   25    28    80	5 ;      NG3P2      CG324       HGA2
   25    28    81	5 ;      NG3P2      CG324       HGA2
   29    28    80	5 ;      CG321      CG324       HGA2
   29    28    81	5 ;      CG321      CG324       HGA2
   80    28    81	5 ;       HGA2      CG324       HGA2
   30    29    28	5 ;      CG321      CG321      CG324
   30    29    82	5 ;      CG321      CG321       HGA2
   30    29    83	5 ;      CG321      CG321       HGA2
   28    29    82	5 ;      CG324      CG321       HGA2
   28    29    83	5 ;      CG324      CG321       HGA2
   82    29    83	5 ;       HGA2      CG321       HGA2
   31    30    29	5 ;      CG331      CG321      CG321
   31    30    84	5 ;      CG331      CG321       HGA2
   31    30    85	5 ;      CG331      CG321       HGA2
   29    30    84	5 ;      CG321      CG321       HGA2
   29    30    85	5 ;      CG321      CG321       HGA2
   84    30    85	5 ;       HGA2      CG321       HGA2
   30    31    86	5 ;      CG321      CG331       HGA3
   30    31    87	5 ;      CG321      CG331       HGA3
   30    31    88	5 ;      CG321      CG331       HGA3
   86    31    87	5 ;       HGA3      CG331       HGA3
   86    31    88	5 ;       HGA3      CG331       HGA3
   87    31    88	5 ;       HGA3      CG331       HGA3
   35    32    33	5 ;       HGP1      NG2S1      CG2O1
   35    32     1	5 ;       HGP1      NG2S1      CG311
   33    32     1	5 ;      CG2O1      NG2S1      CG311
   34    33    32	5 ;      OG2D1      CG2O1      NG2S1
   34    33    36	5 ;      OG2D1      CG2O1      CG311
   32    33    36	5 ;      NG2S1      CG2O1      CG311
   37    36    33	5 ;      NG2S1      CG311      CG2O1
   37    36    51	5 ;      NG2S1      CG311      CG321
   37    36    89	5 ;      NG2S1      CG311       HGA1
   33    36    51	5 ;      CG2O1      CG311      CG321
   33    36    89	5 ;      CG2O1      CG311       HGA1
   51    36    89	5 ;      CG321      CG311       HGA1
   38    37    40	5 ;      CG2O1      NG2S1       HGP1
   38    37    36	5 ;      CG2O1      NG2S1      CG311
   40    37    36	5 ;       HGP1      NG2S1      CG311
   41    38    39	5 ;      CG311      CG2O1      OG2D1
   41    38    37	5 ;      CG311      CG2O1      NG2S1
   39    38    37	5 ;      OG2D1      CG2O1      NG2S1
   47    41    42	5 ;      CG321      CG311      NG2S1
   47    41    38	5 ;      CG321      CG311      CG2O1
   47    41    90	5 ;      CG321      CG311       HGA1
   42    41    38	5 ;      NG2S1      CG311      CG2O1
   42    41    90	5 ;      NG2S1      CG311       HGA1
   38    41    90	5 ;      CG2O1      CG311       HGA1
   46    42    43	5 ;       HGP1      NG2S1      CG2O1
   46    42    41	5 ;       HGP1      NG2S1      CG311
   43    42    41	5 ;      CG2O1      NG2S1      CG311
   45    43    42	5 ;      CG331      CG2O1      NG2S1
   45    43    44	5 ;      CG331      CG2O1      OG2D1
   42    43    44	5 ;      NG2S1      CG2O1      OG2D1
   43    45    91	5 ;      CG2O1      CG331       HGA3
   43    45    92	5 ;      CG2O1      CG331       HGA3
   43    45    93	5 ;      CG2O1      CG331       HGA3
   91    45    92	5 ;       HGA3      CG331       HGA3
   91    45    93	5 ;       HGA3      CG331       HGA3
   92    45    93	5 ;       HGA3      CG331       HGA3
   48    47    41	5 ;      CG311      CG321      CG311
   48    47    94	5 ;      CG311      CG321       HGA2
   48    47    95	5 ;      CG311      CG321       HGA2
   41    47    94	5 ;      CG311      CG321       HGA2
   41    47    95	5 ;      CG311      CG321       HGA2
   94    47    95	5 ;       HGA2      CG321       HGA2
   50    48    47	5 ;      CG331      CG311      CG321
   50    48    49	5 ;      CG331      CG311      CG331
   50    48    96	5 ;      CG331      CG311       HGA1
   47    48    49	5 ;      CG321      CG311      CG331
   47    48    96	5 ;      CG321      CG311       HGA1
   49    48    96	5 ;      CG331      CG311       HGA1
   48    49    97	5 ;      CG311      CG331       HGA3
   48    49    98	5 ;      CG311      CG331       HGA3
   48    49    99	5 ;      CG311      CG331       HGA3
   97    49    98	5 ;       HGA3      CG331       HGA3
   97    49    99	5 ;       HGA3      CG331       HGA3
   98    49    99	5 ;       HGA3      CG331       HGA3
   48    50   100	5 ;      CG311      CG331       HGA3
   48    50   101	5 ;      CG311      CG331       HGA3
   48    50   102	5 ;      CG311      CG331       HGA3
  100    50   101	5 ;       HGA3      CG331       HGA3
  100    50   102	5 ;       HGA3      CG331       HGA3
  101    50   102	5 ;       HGA3      CG331       HGA3
   36    51    52	5 ;      CG311      CG321      CG321
   36    51   103	5 ;      CG311      CG321       HGA2
   36    51   104	5 ;      CG311      CG321       HGA2
   52    51   103	5 ;      CG321      CG321       HGA2
   52    51   104	5 ;      CG321      CG321       HGA2
  103    51   104	5 ;       HGA2      CG321       HGA2
   51    52    53	5 ;      CG321      CG321      SG311
   51    52   105	5 ;      CG321      CG321       HGA2
   51    52   106	5 ;      CG321      CG321       HGA2
   53    52   105	5 ;      SG311      CG321       HGA2
   53    52   106	5 ;      SG311      CG321       HGA2
  105    52   106	5 ;       HGA2      CG321       HGA2
   54    53    52	5 ;      CG331      SG311      CG321
   53    54   107	5 ;      SG311      CG331       HGA3
   53    54   108	5 ;      SG311      CG331       HGA3
   53    54   109	5 ;      SG311      CG331       HGA3
  107    54   108	5 ;       HGA3      CG331       HGA3
  107    54   109	5 ;       HGA3      CG331       HGA3
  108    54   109	5 ;       HGA3      CG331       HGA3

[ dihedrals ]
;	ai	  aj	ak	  al funct			  c0			c1			  c2			c3			  c4			c5
    2     1    32    35	 9 ;      CG321      CG311      NG2S1       HGP1
    2     1    32    33	 9 ;      CG321      CG311      NG2S1      CG2O1
    6     1    32    35	 9 ;      CG311      CG311      NG2S1       HGP1
    6     1    32    33	 9 ;      CG311      CG311      NG2S1      CG2O1
   55     1    32    35	 9 ;       HGA1      CG311      NG2S1       HGP1
   55     1    32    33	 9 ;       HGA1      CG311      NG2S1      CG2O1
   32     1     2     3	 9 ;      NG2S1      CG311      CG321      CG311
   32     1     2    56	 9 ;      NG2S1      CG311      CG321       HGA2
   32     1     2    57	 9 ;      NG2S1      CG311      CG321       HGA2
    6     1     2     3	 9 ;      CG311      CG311      CG321      CG311
    6     1     2    56	 9 ;      CG311      CG311      CG321       HGA2
    6     1     2    57	 9 ;      CG311      CG311      CG321       HGA2
   55     1     2     3	 9 ;       HGA1      CG311      CG321      CG311
   55     1     2    56	 9 ;       HGA1      CG311      CG321       HGA2
   55     1     2    57	 9 ;       HGA1      CG311      CG321       HGA2
   32     1     6     7	 9 ;      NG2S1      CG311      CG311      OG311
   32     1     6     9	 9 ;      NG2S1      CG311      CG311     CG3C51
   32     1     6    65	 9 ;      NG2S1      CG311      CG311       HGA1
    2     1     6     7	 9 ;      CG321      CG311      CG311      OG311
    2     1     6     9	 9 ;      CG321      CG311      CG311     CG3C51
    2     1     6    65	 9 ;      CG321      CG311      CG311       HGA1
   55     1     6     7	 9 ;       HGA1      CG311      CG311      OG311
   55     1     6     9	 9 ;       HGA1      CG311      CG311     CG3C51
   55     1     6    65	 9 ;       HGA1      CG311      CG311       HGA1
    1     2     3     5	 9 ;      CG311      CG321      CG311      CG331
    1     2     3     4	 9 ;      CG311      CG321      CG311      CG331
    1     2     3    58	 9 ;      CG311      CG321      CG311       HGA1
   56     2     3     5	 9 ;       HGA2      CG321      CG311      CG331
   56     2     3     4	 9 ;       HGA2      CG321      CG311      CG331
   56     2     3    58	 9 ;       HGA2      CG321      CG311       HGA1
   57     2     3     5	 9 ;       HGA2      CG321      CG311      CG331
   57     2     3     4	 9 ;       HGA2      CG321      CG311      CG331
   57     2     3    58	 9 ;       HGA2      CG321      CG311       HGA1
    2     3     5    62	 9 ;      CG321      CG311      CG331       HGA3
    2     3     5    63	 9 ;      CG321      CG311      CG331       HGA3
    2     3     5    64	 9 ;      CG321      CG311      CG331       HGA3
    4     3     5    62	 9 ;      CG331      CG311      CG331       HGA3
    4     3     5    63	 9 ;      CG331      CG311      CG331       HGA3
    4     3     5    64	 9 ;      CG331      CG311      CG331       HGA3
   58     3     5    62	 9 ;       HGA1      CG311      CG331       HGA3
   58     3     5    63	 9 ;       HGA1      CG311      CG331       HGA3
   58     3     5    64	 9 ;       HGA1      CG311      CG331       HGA3
    5     3     4    59	 9 ;      CG331      CG311      CG331       HGA3
    5     3     4    60	 9 ;      CG331      CG311      CG331       HGA3
    5     3     4    61	 9 ;      CG331      CG311      CG331       HGA3
    2     3     4    59	 9 ;      CG321      CG311      CG331       HGA3
    2     3     4    60	 9 ;      CG321      CG311      CG331       HGA3
    2     3     4    61	 9 ;      CG321      CG311      CG331       HGA3
   58     3     4    59	 9 ;       HGA1      CG311      CG331       HGA3
   58     3     4    60	 9 ;       HGA1      CG311      CG331       HGA3
   58     3     4    61	 9 ;       HGA1      CG311      CG331       HGA3
    1     6     7     8	 9 ;      CG311      CG311      OG311       HGP1
    9     6     7     8	 9 ;     CG3C51      CG311      OG311       HGP1
   65     6     7     8	 9 ;       HGA1      CG311      OG311       HGP1
    7     6     9    14	 9 ;      OG311      CG311     CG3C51     CG3C51
    7     6     9    10	 9 ;      OG311      CG311     CG3C51     CG3C52
    7     6     9    66	 9 ;      OG311      CG311     CG3C51       HGA1
    1     6     9    14	 9 ;      CG311      CG311     CG3C51     CG3C51
    1     6     9    10	 9 ;      CG311      CG311     CG3C51     CG3C52
    1     6     9    66	 9 ;      CG311      CG311     CG3C51       HGA1
   65     6     9    14	 9 ;       HGA1      CG311     CG3C51     CG3C51
   65     6     9    10	 9 ;       HGA1      CG311     CG3C51     CG3C52
   65     6     9    66	 9 ;       HGA1      CG311     CG3C51       HGA1
    6     9    14    15	 9 ;      CG311     CG3C51     CG3C51      CG2O1
    6     9    14    13	 9 ;      CG311     CG3C51     CG3C51     CG3C52
    6     9    14    71	 9 ;      CG311     CG3C51     CG3C51       HGA1
   10     9    14    15	 9 ;     CG3C52     CG3C51     CG3C51      CG2O1
   10     9    14    13	 9 ;     CG3C52     CG3C51     CG3C51     CG3C52
   10     9    14    71	 9 ;     CG3C52     CG3C51     CG3C51       HGA1
   66     9    14    15	 9 ;       HGA1     CG3C51     CG3C51      CG2O1
   66     9    14    13	 9 ;       HGA1     CG3C51     CG3C51     CG3C52
   66     9    14    71	 9 ;       HGA1     CG3C51     CG3C51       HGA1
    6     9    10    11	 9 ;      CG311     CG3C51     CG3C52      CG2O5
    6     9    10    67	 9 ;      CG311     CG3C51     CG3C52       HGA2
    6     9    10    68	 9 ;      CG311     CG3C51     CG3C52       HGA2
   14     9    10    11	 9 ;     CG3C51     CG3C51     CG3C52      CG2O5
   14     9    10    67	 9 ;     CG3C51     CG3C51     CG3C52       HGA2
   14     9    10    68	 9 ;     CG3C51     CG3C51     CG3C52       HGA2
   66     9    10    11	 9 ;       HGA1     CG3C51     CG3C52      CG2O5
   66     9    10    67	 9 ;       HGA1     CG3C51     CG3C52       HGA2
   66     9    10    68	 9 ;       HGA1     CG3C51     CG3C52       HGA2
    9    10    11    13	 9 ;     CG3C51     CG3C52      CG2O5     CG3C52
    9    10    11    12	 9 ;     CG3C51     CG3C52      CG2O5      OG2D3
   67    10    11    13	 9 ;       HGA2     CG3C52      CG2O5     CG3C52
   67    10    11    12	 9 ;       HGA2     CG3C52      CG2O5      OG2D3
   68    10    11    13	 9 ;       HGA2     CG3C52      CG2O5     CG3C52
   68    10    11    12	 9 ;       HGA2     CG3C52      CG2O5      OG2D3
   10    11    13    14	 9 ;     CG3C52      CG2O5     CG3C52     CG3C51
   10    11    13    69	 9 ;     CG3C52      CG2O5     CG3C52       HGA2
   10    11    13    70	 9 ;     CG3C52      CG2O5     CG3C52       HGA2
   12    11    13    14	 9 ;      OG2D3      CG2O5     CG3C52     CG3C51
   12    11    13    69	 9 ;      OG2D3      CG2O5     CG3C52       HGA2
   12    11    13    70	 9 ;      OG2D3      CG2O5     CG3C52       HGA2
   11    13    14    15	 9 ;      CG2O5     CG3C52     CG3C51      CG2O1
   11    13    14     9	 9 ;      CG2O5     CG3C52     CG3C51     CG3C51
   11    13    14    71	 9 ;      CG2O5     CG3C52     CG3C51       HGA1
   69    13    14    15	 9 ;       HGA2     CG3C52     CG3C51      CG2O1
   69    13    14     9	 9 ;       HGA2     CG3C52     CG3C51     CG3C51
   69    13    14    71	 9 ;       HGA2     CG3C52     CG3C51       HGA1
   70    13    14    15	 9 ;       HGA2     CG3C52     CG3C51      CG2O1
   70    13    14     9	 9 ;       HGA2     CG3C52     CG3C51     CG3C51
   70    13    14    71	 9 ;       HGA2     CG3C52     CG3C51       HGA1
    9    14    15    16	 9 ;     CG3C51     CG3C51      CG2O1      OG2D1
    9    14    15    17	 9 ;     CG3C51     CG3C51      CG2O1      NG2S1
   13    14    15    16	 9 ;     CG3C52     CG3C51      CG2O1      OG2D1
   13    14    15    17	 9 ;     CG3C52     CG3C51      CG2O1      NG2S1
   71    14    15    16	 9 ;       HGA1     CG3C51      CG2O1      OG2D1
   71    14    15    17	 9 ;       HGA1     CG3C51      CG2O1      NG2S1
   16    15    17    19	 9 ;      OG2D1      CG2O1      NG2S1      CG311
   16    15    17    18	 9 ;      OG2D1      CG2O1      NG2S1       HGP1
   14    15    17    19	 9 ;     CG3C51      CG2O1      NG2S1      CG311
   14    15    17    18	 9 ;     CG3C51      CG2O1      NG2S1       HGP1
   18    17    19    20	 9 ;       HGP1      NG2S1      CG311      CG311
   18    17    19    23	 9 ;       HGP1      NG2S1      CG311      CG2O1
   18    17    19    72	 9 ;       HGP1      NG2S1      CG311       HGA1
   15    17    19    20	 9 ;      CG2O1      NG2S1      CG311      CG311
   15    17    19    23	 9 ;      CG2O1      NG2S1      CG311      CG2O1
   15    17    19    72	 9 ;      CG2O1      NG2S1      CG311       HGA1
   23    19    20    21	 9 ;      CG2O1      CG311      CG311      CG331
   23    19    20    22	 9 ;      CG2O1      CG311      CG311      CG331
   23    19    20    73	 9 ;      CG2O1      CG311      CG311       HGA1
   17    19    20    21	 9 ;      NG2S1      CG311      CG311      CG331
   17    19    20    22	 9 ;      NG2S1      CG311      CG311      CG331
   17    19    20    73	 9 ;      NG2S1      CG311      CG311       HGA1
   72    19    20    21	 9 ;       HGA1      CG311      CG311      CG331
   72    19    20    22	 9 ;       HGA1      CG311      CG311      CG331
   72    19    20    73	 9 ;       HGA1      CG311      CG311       HGA1
   20    19    23    25	 9 ;      CG311      CG311      CG2O1      NG3P2
   20    19    23    24	 9 ;      CG311      CG311      CG2O1      OG2D1
   17    19    23    25	 9 ;      NG2S1      CG311      CG2O1      NG3P2
   17    19    23    24	 9 ;      NG2S1      CG311      CG2O1      OG2D1
   72    19    23    25	 9 ;       HGA1      CG311      CG2O1      NG3P2
   72    19    23    24	 9 ;       HGA1      CG311      CG2O1      OG2D1
   19    20    21    74	 9 ;      CG311      CG311      CG331       HGA3
   19    20    21    75	 9 ;      CG311      CG311      CG331       HGA3
   19    20    21    76	 9 ;      CG311      CG311      CG331       HGA3
   22    20    21    74	 9 ;      CG331      CG311      CG331       HGA3
   22    20    21    75	 9 ;      CG331      CG311      CG331       HGA3
   22    20    21    76	 9 ;      CG331      CG311      CG331       HGA3
   73    20    21    74	 9 ;       HGA1      CG311      CG331       HGA3
   73    20    21    75	 9 ;       HGA1      CG311      CG331       HGA3
   73    20    21    76	 9 ;       HGA1      CG311      CG331       HGA3
   21    20    22    77	 9 ;      CG331      CG311      CG331       HGA3
   21    20    22    78	 9 ;      CG331      CG311      CG331       HGA3
   21    20    22    79	 9 ;      CG331      CG311      CG331       HGA3
   19    20    22    77	 9 ;      CG311      CG311      CG331       HGA3
   19    20    22    78	 9 ;      CG311      CG311      CG331       HGA3
   19    20    22    79	 9 ;      CG311      CG311      CG331       HGA3
   73    20    22    77	 9 ;       HGA1      CG311      CG331       HGA3
   73    20    22    78	 9 ;       HGA1      CG311      CG331       HGA3
   73    20    22    79	 9 ;       HGA1      CG311      CG331       HGA3
   19    23    25    26	 9 ;      CG311      CG2O1      NG3P2       HGP2
   19    23    25    27	 9 ;      CG311      CG2O1      NG3P2       HGP2
   19    23    25    28	 9 ;      CG311      CG2O1      NG3P2      CG324
   24    23    25    26	 9 ;      OG2D1      CG2O1      NG3P2       HGP2
   24    23    25    27	 9 ;      OG2D1      CG2O1      NG3P2       HGP2
   24    23    25    28	 9 ;      OG2D1      CG2O1      NG3P2      CG324
   26    25    28    29	 9 ;       HGP2      NG3P2      CG324      CG321
   26    25    28    80	 9 ;       HGP2      NG3P2      CG324       HGA2
   26    25    28    81	 9 ;       HGP2      NG3P2      CG324       HGA2
   27    25    28    29	 9 ;       HGP2      NG3P2      CG324      CG321
   27    25    28    80	 9 ;       HGP2      NG3P2      CG324       HGA2
   27    25    28    81	 9 ;       HGP2      NG3P2      CG324       HGA2
   23    25    28    29	 9 ;      CG2O1      NG3P2      CG324      CG321
   23    25    28    80	 9 ;      CG2O1      NG3P2      CG324       HGA2
   23    25    28    81	 9 ;      CG2O1      NG3P2      CG324       HGA2
   25    28    29    30	 9 ;      NG3P2      CG324      CG321      CG321
   25    28    29    82	 9 ;      NG3P2      CG324      CG321       HGA2
   25    28    29    83	 9 ;      NG3P2      CG324      CG321       HGA2
   80    28    29    30	 9 ;       HGA2      CG324      CG321      CG321
   80    28    29    82	 9 ;       HGA2      CG324      CG321       HGA2
   80    28    29    83	 9 ;       HGA2      CG324      CG321       HGA2
   81    28    29    30	 9 ;       HGA2      CG324      CG321      CG321
   81    28    29    82	 9 ;       HGA2      CG324      CG321       HGA2
   81    28    29    83	 9 ;       HGA2      CG324      CG321       HGA2
   28    29    30    31	 9 ;      CG324      CG321      CG321      CG331
   28    29    30    84	 9 ;      CG324      CG321      CG321       HGA2
   28    29    30    85	 9 ;      CG324      CG321      CG321       HGA2
   82    29    30    31	 9 ;       HGA2      CG321      CG321      CG331
   82    29    30    84	 9 ;       HGA2      CG321      CG321       HGA2
   82    29    30    85	 9 ;       HGA2      CG321      CG321       HGA2
   83    29    30    31	 9 ;       HGA2      CG321      CG321      CG331
   83    29    30    84	 9 ;       HGA2      CG321      CG321       HGA2
   83    29    30    85	 9 ;       HGA2      CG321      CG321       HGA2
   29    30    31    86	 9 ;      CG321      CG321      CG331       HGA3
   29    30    31    87	 9 ;      CG321      CG321      CG331       HGA3
   29    30    31    88	 9 ;      CG321      CG321      CG331       HGA3
   84    30    31    86	 9 ;       HGA2      CG321      CG331       HGA3
   84    30    31    87	 9 ;       HGA2      CG321      CG331       HGA3
   84    30    31    88	 9 ;       HGA2      CG321      CG331       HGA3
   85    30    31    86	 9 ;       HGA2      CG321      CG331       HGA3
   85    30    31    87	 9 ;       HGA2      CG321      CG331       HGA3
   85    30    31    88	 9 ;       HGA2      CG321      CG331       HGA3
   35    32    33    34	 9 ;       HGP1      NG2S1      CG2O1      OG2D1
   35    32    33    36	 9 ;       HGP1      NG2S1      CG2O1      CG311
    1    32    33    34	 9 ;      CG311      NG2S1      CG2O1      OG2D1
    1    32    33    36	 9 ;      CG311      NG2S1      CG2O1      CG311
   34    33    36    37	 9 ;      OG2D1      CG2O1      CG311      NG2S1
   34    33    36    51	 9 ;      OG2D1      CG2O1      CG311      CG321
   34    33    36    89	 9 ;      OG2D1      CG2O1      CG311       HGA1
   32    33    36    37	 9 ;      NG2S1      CG2O1      CG311      NG2S1
   32    33    36    51	 9 ;      NG2S1      CG2O1      CG311      CG321
   32    33    36    89	 9 ;      NG2S1      CG2O1      CG311       HGA1
   33    36    37    38	 9 ;      CG2O1      CG311      NG2S1      CG2O1
   33    36    37    40	 9 ;      CG2O1      CG311      NG2S1       HGP1
   51    36    37    38	 9 ;      CG321      CG311      NG2S1      CG2O1
   51    36    37    40	 9 ;      CG321      CG311      NG2S1       HGP1
   89    36    37    38	 9 ;       HGA1      CG311      NG2S1      CG2O1
   89    36    37    40	 9 ;       HGA1      CG311      NG2S1       HGP1
   37    36    51    52	 9 ;      NG2S1      CG311      CG321      CG321
   37    36    51   103	 9 ;      NG2S1      CG311      CG321       HGA2
   37    36    51   104	 9 ;      NG2S1      CG311      CG321       HGA2
   33    36    51    52	 9 ;      CG2O1      CG311      CG321      CG321
   33    36    51   103	 9 ;      CG2O1      CG311      CG321       HGA2
   33    36    51   104	 9 ;      CG2O1      CG311      CG321       HGA2
   89    36    51    52	 9 ;       HGA1      CG311      CG321      CG321
   89    36    51   103	 9 ;       HGA1      CG311      CG321       HGA2
   89    36    51   104	 9 ;       HGA1      CG311      CG321       HGA2
   40    37    38    41	 9 ;       HGP1      NG2S1      CG2O1      CG311
   40    37    38    39	 9 ;       HGP1      NG2S1      CG2O1      OG2D1
   36    37    38    41	 9 ;      CG311      NG2S1      CG2O1      CG311
   36    37    38    39	 9 ;      CG311      NG2S1      CG2O1      OG2D1
   39    38    41    47	 9 ;      OG2D1      CG2O1      CG311      CG321
   39    38    41    42	 9 ;      OG2D1      CG2O1      CG311      NG2S1
   39    38    41    90	 9 ;      OG2D1      CG2O1      CG311       HGA1
   37    38    41    47	 9 ;      NG2S1      CG2O1      CG311      CG321
   37    38    41    42	 9 ;      NG2S1      CG2O1      CG311      NG2S1
   37    38    41    90	 9 ;      NG2S1      CG2O1      CG311       HGA1
   42    41    47    48	 9 ;      NG2S1      CG311      CG321      CG311
   42    41    47    94	 9 ;      NG2S1      CG311      CG321       HGA2
   42    41    47    95	 9 ;      NG2S1      CG311      CG321       HGA2
   38    41    47    48	 9 ;      CG2O1      CG311      CG321      CG311
   38    41    47    94	 9 ;      CG2O1      CG311      CG321       HGA2
   38    41    47    95	 9 ;      CG2O1      CG311      CG321       HGA2
   90    41    47    48	 9 ;       HGA1      CG311      CG321      CG311
   90    41    47    94	 9 ;       HGA1      CG311      CG321       HGA2
   90    41    47    95	 9 ;       HGA1      CG311      CG321       HGA2
   47    41    42    46	 9 ;      CG321      CG311      NG2S1       HGP1
   47    41    42    43	 9 ;      CG321      CG311      NG2S1      CG2O1
   38    41    42    46	 9 ;      CG2O1      CG311      NG2S1       HGP1
   38    41    42    43	 9 ;      CG2O1      CG311      NG2S1      CG2O1
   90    41    42    46	 9 ;       HGA1      CG311      NG2S1       HGP1
   90    41    42    43	 9 ;       HGA1      CG311      NG2S1      CG2O1
   46    42    43    45	 9 ;       HGP1      NG2S1      CG2O1      CG331
   46    42    43    44	 9 ;       HGP1      NG2S1      CG2O1      OG2D1
   41    42    43    45	 9 ;      CG311      NG2S1      CG2O1      CG331
   41    42    43    44	 9 ;      CG311      NG2S1      CG2O1      OG2D1
   42    43    45    91	 9 ;      NG2S1      CG2O1      CG331       HGA3
   42    43    45    92	 9 ;      NG2S1      CG2O1      CG331       HGA3
   42    43    45    93	 9 ;      NG2S1      CG2O1      CG331       HGA3
   44    43    45    91	 9 ;      OG2D1      CG2O1      CG331       HGA3
   44    43    45    92	 9 ;      OG2D1      CG2O1      CG331       HGA3
   44    43    45    93	 9 ;      OG2D1      CG2O1      CG331       HGA3
   41    47    48    50	 9 ;      CG311      CG321      CG311      CG331
   41    47    48    49	 9 ;      CG311      CG321      CG311      CG331
   41    47    48    96	 9 ;      CG311      CG321      CG311       HGA1
   94    47    48    50	 9 ;       HGA2      CG321      CG311      CG331
   94    47    48    49	 9 ;       HGA2      CG321      CG311      CG331
   94    47    48    96	 9 ;       HGA2      CG321      CG311       HGA1
   95    47    48    50	 9 ;       HGA2      CG321      CG311      CG331
   95    47    48    49	 9 ;       HGA2      CG321      CG311      CG331
   95    47    48    96	 9 ;       HGA2      CG321      CG311       HGA1
   47    48    50   100	 9 ;      CG321      CG311      CG331       HGA3
   47    48    50   101	 9 ;      CG321      CG311      CG331       HGA3
   47    48    50   102	 9 ;      CG321      CG311      CG331       HGA3
   49    48    50   100	 9 ;      CG331      CG311      CG331       HGA3
   49    48    50   101	 9 ;      CG331      CG311      CG331       HGA3
   49    48    50   102	 9 ;      CG331      CG311      CG331       HGA3
   96    48    50   100	 9 ;       HGA1      CG311      CG331       HGA3
   96    48    50   101	 9 ;       HGA1      CG311      CG331       HGA3
   96    48    50   102	 9 ;       HGA1      CG311      CG331       HGA3
   50    48    49    97	 9 ;      CG331      CG311      CG331       HGA3
   50    48    49    98	 9 ;      CG331      CG311      CG331       HGA3
   50    48    49    99	 9 ;      CG331      CG311      CG331       HGA3
   47    48    49    97	 9 ;      CG321      CG311      CG331       HGA3
   47    48    49    98	 9 ;      CG321      CG311      CG331       HGA3
   47    48    49    99	 9 ;      CG321      CG311      CG331       HGA3
   96    48    49    97	 9 ;       HGA1      CG311      CG331       HGA3
   96    48    49    98	 9 ;       HGA1      CG311      CG331       HGA3
   96    48    49    99	 9 ;       HGA1      CG311      CG331       HGA3
   36    51    52    53	 9 ;      CG311      CG321      CG321      SG311
   36    51    52   105	 9 ;      CG311      CG321      CG321       HGA2
   36    51    52   106	 9 ;      CG311      CG321      CG321       HGA2
  103    51    52    53	 9 ;       HGA2      CG321      CG321      SG311
  103    51    52   105	 9 ;       HGA2      CG321      CG321       HGA2
  103    51    52   106	 9 ;       HGA2      CG321      CG321       HGA2
  104    51    52    53	 9 ;       HGA2      CG321      CG321      SG311
  104    51    52   105	 9 ;       HGA2      CG321      CG321       HGA2
  104    51    52   106	 9 ;       HGA2      CG321      CG321       HGA2
   51    52    53    54	 9 ;      CG321      CG321      SG311      CG331
  105    52    53    54	 9 ;       HGA2      CG321      SG311      CG331
  106    52    53    54	 9 ;       HGA2      CG321      SG311      CG331
   52    53    54   107	 9 ;      CG321      SG311      CG331       HGA3
   52    53    54   108	 9 ;      CG321      SG311      CG331       HGA3
   52    53    54   109	 9 ;      CG321      SG311      CG331       HGA3

[ dihedrals ]
;	ai	  aj	ak	  al funct			  c0			c1			  c2			c3
   11    13    10    12	 2
   15    14    17    16	 2
   23    19    25    24	 2
   33    36    32    34	 2
   38    41    37    39	 2
   43    45    42    44	 2

