GRoups of Organic Molecules in ACtion for Science
   55
    1LIG     O1    1  -1.063   0.688  -1.918
    1LIG     C1    2  -1.105   0.588  -1.833
    1LIG     C2    3  -1.156   0.612  -1.707
    1LIG     C3    4  -1.157   0.502  -1.616
    1LIG     C4    5  -1.142   0.368  -1.653
    1LIG     C5    6  -1.107   0.349  -1.787
    1LIG     C6    7  -1.083   0.456  -1.874
    1LIG     C7    8  -1.195   0.752  -1.663
    1LIG     N1    9  -1.323   0.816  -1.714
    1LIG     HN   10  -1.341   0.850  -1.808
    1LIG     C8   11  -1.405   0.818  -1.615
    1LIG     N2   12  -1.374   0.735  -1.513
    1LIG     C9   13  -1.435   0.605  -1.551
    1LIG    C10   14  -1.237   0.748  -1.514
    1LIG     O2   15  -1.163   0.766  -1.417
    1LIG    C11   16  -1.088   0.843  -1.722
    1LIG    C12   17  -1.089   0.825  -1.878
    1LIG    C13   18  -1.219   0.866  -1.951
    1LIG    C14   19  -0.978   0.912  -1.938
    1LIG     N3   20  -1.520   0.888  -1.608
    1LIG     H1   21  -1.575   0.881  -1.693
    1LIG     H2   22  -1.575   0.865  -1.526
    1LIG     N4   23  -1.164   0.266  -1.563
    1LIG    C15   24  -1.235   0.289  -1.438
    1LIG    C16   25  -1.143   0.259  -1.319
    1LIG    C17   26  -1.086   0.117  -1.327
    1LIG    C18   27  -1.018   0.094  -1.461
    1LIG    C19   28  -1.109   0.130  -1.579
    1LIG     HC   29  -1.171   0.524  -1.511
    1LIG    HC1   30  -1.099   0.248  -1.824
    1LIG    HC2   31  -1.047   0.437  -1.974
    1LIG    HN2   32  -1.358   0.725  -1.741
    1LIG    HC3   33  -1.349   0.899  -1.568
    1LIG    HC4   34  -1.543   0.610  -1.538
    1LIG    HC5   35  -1.412   0.584  -1.655
    1LIG    HC6   36  -1.394   0.527  -1.488
    1LIG    HC7   37  -1.109   0.946  -1.696
    1LIG    HC8   38  -0.990   0.814  -1.682
    1LIG    HC9   39  -1.196   0.889  -2.055
    1LIG   HC10   40  -1.261   0.954  -1.903
    1LIG   HC11   41  -1.290   0.784  -1.946
    1LIG   HC12   42  -0.882   0.888  -1.891
    1LIG   HC13   43  -1.001   1.017  -1.921
    1LIG   HC14   44  -0.971   0.893  -2.045
    1LIG    HN1   45  -1.495   0.986  -1.600
    1LIG   HC15   46  -1.267   0.394  -1.433
    1LIG   HC16   47  -1.323   0.225  -1.433
    1LIG   HC17   48  -1.200   0.269  -1.227
    1LIG   HC18   49  -1.061   0.330  -1.319
    1LIG   HC19   50  -1.014   0.104  -1.247
    1LIG   HC20   51  -1.167   0.045  -1.315
    1LIG   HC21   52  -0.990  -0.012  -1.469
    1LIG   HC22   53  -0.927   0.154  -1.466
    1LIG   HC23   54  -1.051   0.126  -1.671
    1LIG   HC24   55  -1.190   0.059  -1.585
   0.00000   0.00000   0.00000
