; Created by cgenff_charmm2gmx.py

[ moleculetype ]
; Name			   nrexcl
LIG				 3

[ atoms ]
;	 nr		  type	resnr residue  atom   cgnr	   charge		mass  typeB    chargeB		massB
; residue	 1 LIG rtp LIG q	qsum
     1     OG3R60      1    LIG     O1      1     -0.368     15.999   ;
     2     CG2R61      1    LIG     C1      2      0.124     12.011   ;
     3     CG2R61      1    LIG     C2      3     -0.250     12.011   ;
     4     CG2R61      1    LIG     C3      4     -0.133     12.011   ;
     5     CG2R61      1    LIG     C4      5      0.067     12.011   ;
     6     CG2R61      1    LIG     C5      6     -0.118     12.011   ;
     7     CG2R61      1    LIG     C6      7     -0.105     12.011   ;
     8     CG3C50      1    LIG     C7      8      1.577     12.011   ;
     9      NG3P2      1    LIG     N1      9     -0.588     14.007   ;
    10       HGP2      1    LIG     HN     10      0.336      1.008   ;
    11     CG3C53      1    LIG     C8     11      0.785     12.011   ;
    12     NG2R53      1    LIG     N2     12     -0.178     14.007   ;
    13      CG331      1    LIG     C9     13     -0.169     12.011   ;
    14     CG2R53      1    LIG    C10     14     -0.420     12.011   ;
    15      OG2D1      1    LIG     O2     15     -0.325     15.999   ;
    16      CG321      1    LIG    C11     16     -0.251     12.011   ;
    17      CG301      1    LIG    C12     17      0.259     12.011   ;
    18      CG331      1    LIG    C13     18     -0.287     12.011   ;
    19      CG331      1    LIG    C14     19     -0.287     12.011   ;
    20      NG3P3      1    LIG     N3     20     -0.267     14.007   ;
    21       HGP2      1    LIG     H1     21      0.301      1.008   ;
    22       HGP2      1    LIG     H2     22      0.301      1.008   ;
    23      NG301      1    LIG     N4     23     -0.546     14.007   ;
    24      CG321      1    LIG    C15     24      0.078     12.011   ;
    25      CG321      1    LIG    C16     25     -0.189     12.011   ;
    26      CG321      1    LIG    C17     26     -0.184     12.011   ;
    27      CG321      1    LIG    C18     27     -0.189     12.011   ;
    28      CG321      1    LIG    C19     28      0.078     12.011   ;
    29      HGR61      1    LIG     HC     29      0.116      1.008   ;
    30      HGR61      1    LIG    HC1     30      0.116      1.008   ;
    31      HGR61      1    LIG    HC2     31      0.116      1.008   ;
    32       HGP2      1    LIG    HN2     32      0.336      1.008   ;
    33       HGA1      1    LIG    HC3     33      0.073      1.008   ;
    34       HGA3      1    LIG    HC4     34      0.090      1.008   ;
    35       HGA3      1    LIG    HC5     35      0.090      1.008   ;
    36       HGA3      1    LIG    HC6     36      0.090      1.008   ;
    37       HGA2      1    LIG    HC7     37      0.090      1.008   ;
    38       HGA2      1    LIG    HC8     38      0.090      1.008   ;
    39       HGA3      1    LIG    HC9     39      0.090      1.008   ;
    40       HGA3      1    LIG   HC10     40      0.090      1.008   ;
    41       HGA3      1    LIG   HC11     41      0.090      1.008   ;
    42       HGA3      1    LIG   HC12     42      0.090      1.008   ;
    43       HGA3      1    LIG   HC13     43      0.090      1.008   ;
    44       HGA3      1    LIG   HC14     44      0.090      1.008   ;
    45       HGP2      1    LIG    HN1     45      0.301      1.008   ;
    46       HGA2      1    LIG   HC15     46      0.090      1.008   ;
    47       HGA2      1    LIG   HC16     47      0.090      1.008   ;
    48       HGA2      1    LIG   HC17     48      0.090      1.008   ;
    49       HGA2      1    LIG   HC18     49      0.090      1.008   ;
    50       HGA2      1    LIG   HC19     50      0.090      1.008   ;
    51       HGA2      1    LIG   HC20     51      0.090      1.008   ;
    52       HGA2      1    LIG   HC21     52      0.090      1.008   ;
    53       HGA2      1    LIG   HC22     53      0.090      1.008   ;
    54       HGA2      1    LIG   HC23     54      0.090      1.008   ;
    55       HGA2      1    LIG   HC24     55      0.090      1.008   ;

[ bonds ]
;	ai	  aj funct			  c0			c1			  c2			c3
    1    17	 1 ;      OG3R60      CG301
    1     2	 1 ;      OG3R60     CG2R61
    2     7	 1 ;      CG2R61     CG2R61
    2     3	 1 ;      CG2R61     CG2R61
    3     8	 1 ;      CG2R61     CG3C50
    3     4	 1 ;      CG2R61     CG2R61
    4     5	 1 ;      CG2R61     CG2R61
    4    29	 1 ;      CG2R61      HGR61
    5     6	 1 ;      CG2R61     CG2R61
    5    23	 1 ;      CG2R61      NG301
    6     7	 1 ;      CG2R61     CG2R61
    6    30	 1 ;      CG2R61      HGR61
    7    31	 1 ;      CG2R61      HGR61
    8    16	 1 ;      CG3C50      CG321
    8     9	 1 ;      CG3C50      NG3P2
    8    14	 1 ;      CG3C50     CG2R53
    9    10	 1 ;       NG3P2       HGP2
    9    11	 1 ;       NG3P2     CG3C53
    9    32	 1 ;       NG3P2       HGP2
   11    20	 1 ;      CG3C53      NG3P3
   11    12	 1 ;      CG3C53     NG2R53
   11    33	 1 ;      CG3C53       HGA1
   12    14	 1 ;      NG2R53     CG2R53
   12    13	 1 ;      NG2R53      CG331
   13    34	 1 ;       CG331       HGA3
   13    35	 1 ;       CG331       HGA3
   13    36	 1 ;       CG331       HGA3
   14    15	 1 ;      CG2R53      OG2D1
   16    17	 1 ;       CG321      CG301
   16    37	 1 ;       CG321       HGA2
   16    38	 1 ;       CG321       HGA2
   17    19	 1 ;       CG301      CG331
   17    18	 1 ;       CG301      CG331
   18    39	 1 ;       CG331       HGA3
   18    40	 1 ;       CG331       HGA3
   18    41	 1 ;       CG331       HGA3
   19    42	 1 ;       CG331       HGA3
   19    43	 1 ;       CG331       HGA3
   19    44	 1 ;       CG331       HGA3
   20    21	 1 ;       NG3P3       HGP2
   20    22	 1 ;       NG3P3       HGP2
   20    45	 1 ;       NG3P3       HGP2
   23    28	 1 ;       NG301      CG321
   23    24	 1 ;       NG301      CG321
   24    25	 1 ;       CG321      CG321
   24    46	 1 ;       CG321       HGA2
   24    47	 1 ;       CG321       HGA2
   25    26	 1 ;       CG321      CG321
   25    48	 1 ;       CG321       HGA2
   25    49	 1 ;       CG321       HGA2
   26    27	 1 ;       CG321      CG321
   26    50	 1 ;       CG321       HGA2
   26    51	 1 ;       CG321       HGA2
   27    28	 1 ;       CG321      CG321
   27    52	 1 ;       CG321       HGA2
   27    53	 1 ;       CG321       HGA2
   28    54	 1 ;       CG321       HGA2
   28    55	 1 ;       CG321       HGA2

[ pairs ]
;	ai	  aj funct			  c0			c1			  c2			c3
    1     6	 1
    1    31	 1
    1     8	 1
    1     4	 1
    1    37	 1
    1    38	 1
    1    42	 1
    1    43	 1
    1    44	 1
    1    39	 1
    1    40	 1
    1    41	 1
    2    19	 1
    2    18	 1
    2    16	 1
    2     9	 1
    2    14	 1
    2     5	 1
    2    29	 1
    2    30	 1
    3    17	 1
    3     6	 1
    3    31	 1
    3    23	 1
    3    37	 1
    3    38	 1
    3    10	 1
    3    11	 1
    3    32	 1
    3    15	 1
    3    12	 1
    4     7	 1
    4    16	 1
    4     9	 1
    4    14	 1
    4    30	 1
    4    28	 1
    4    24	 1
    5     8	 1
    5    31	 1
    5    27	 1
    5    54	 1
    5    55	 1
    5    25	 1
    5    46	 1
    5    47	 1
    6    29	 1
    6    28	 1
    6    24	 1
    7    17	 1
    7     8	 1
    7    23	 1
    8    29	 1
    8    20	 1
    8    33	 1
    8    13	 1
    8    19	 1
    8    18	 1
    9    17	 1
    9    37	 1
    9    38	 1
    9    15	 1
    9    21	 1
    9    22	 1
    9    45	 1
    9    13	 1
   10    16	 1
   10    14	 1
   10    20	 1
   10    12	 1
   10    33	 1
   11    16	 1
   11    15	 1
   11    34	 1
   11    35	 1
   11    36	 1
   12    16	 1
   12    32	 1
   12    21	 1
   12    22	 1
   12    45	 1
   13    20	 1
   13    33	 1
   13    15	 1
   14    17	 1
   14    37	 1
   14    38	 1
   14    32	 1
   14    20	 1
   14    33	 1
   14    34	 1
   14    35	 1
   14    36	 1
   15    16	 1
   16    32	 1
   16    42	 1
   16    43	 1
   16    44	 1
   16    39	 1
   16    40	 1
   16    41	 1
   18    37	 1
   18    38	 1
   18    42	 1
   18    43	 1
   18    44	 1
   19    37	 1
   19    38	 1
   19    39	 1
   19    40	 1
   19    41	 1
   20    32	 1
   21    33	 1
   22    33	 1
   23    29	 1
   23    30	 1
   23    26	 1
   23    48	 1
   23    49	 1
   23    52	 1
   23    53	 1
   24    27	 1
   24    54	 1
   24    55	 1
   24    50	 1
   24    51	 1
   25    28	 1
   25    52	 1
   25    53	 1
   26    46	 1
   26    47	 1
   26    54	 1
   26    55	 1
   27    48	 1
   27    49	 1
   28    46	 1
   28    47	 1
   28    50	 1
   28    51	 1
   30    31	 1
   32    33	 1
   33    45	 1
   46    48	 1
   46    49	 1
   47    48	 1
   47    49	 1
   48    50	 1
   48    51	 1
   49    50	 1
   49    51	 1
   50    52	 1
   50    53	 1
   51    52	 1
   51    53	 1
   52    54	 1
   52    55	 1
   53    54	 1
   53    55	 1

[ angles ]
;	ai	  aj	ak funct			c0			  c1			c2			  c3
   17     1     2	5 ;      CG301     OG3R60     CG2R61
    1     2     7	5 ;     OG3R60     CG2R61     CG2R61
    1     2     3	5 ;     OG3R60     CG2R61     CG2R61
    7     2     3	5 ;     CG2R61     CG2R61     CG2R61
    2     3     8	5 ;     CG2R61     CG2R61     CG3C50
    2     3     4	5 ;     CG2R61     CG2R61     CG2R61
    8     3     4	5 ;     CG3C50     CG2R61     CG2R61
    3     4     5	5 ;     CG2R61     CG2R61     CG2R61
    3     4    29	5 ;     CG2R61     CG2R61      HGR61
    5     4    29	5 ;     CG2R61     CG2R61      HGR61
    6     5     4	5 ;     CG2R61     CG2R61     CG2R61
    6     5    23	5 ;     CG2R61     CG2R61      NG301
    4     5    23	5 ;     CG2R61     CG2R61      NG301
    7     6     5	5 ;     CG2R61     CG2R61     CG2R61
    7     6    30	5 ;     CG2R61     CG2R61      HGR61
    5     6    30	5 ;     CG2R61     CG2R61      HGR61
    2     7     6	5 ;     CG2R61     CG2R61     CG2R61
    2     7    31	5 ;     CG2R61     CG2R61      HGR61
    6     7    31	5 ;     CG2R61     CG2R61      HGR61
   16     8     3	5 ;      CG321     CG3C50     CG2R61
   16     8     9	5 ;      CG321     CG3C50      NG3P2
   16     8    14	5 ;      CG321     CG3C50     CG2R53
    3     8     9	5 ;     CG2R61     CG3C50      NG3P2
    3     8    14	5 ;     CG2R61     CG3C50     CG2R53
    9     8    14	5 ;      NG3P2     CG3C50     CG2R53
   10     9     8	5 ;       HGP2      NG3P2     CG3C50
   10     9    11	5 ;       HGP2      NG3P2     CG3C53
   10     9    32	5 ;       HGP2      NG3P2       HGP2
    8     9    11	5 ;     CG3C50      NG3P2     CG3C53
    8     9    32	5 ;     CG3C50      NG3P2       HGP2
   11     9    32	5 ;     CG3C53      NG3P2       HGP2
    9    11    20	5 ;      NG3P2     CG3C53      NG3P3
    9    11    12	5 ;      NG3P2     CG3C53     NG2R53
    9    11    33	5 ;      NG3P2     CG3C53       HGA1
   20    11    12	5 ;      NG3P3     CG3C53     NG2R53
   20    11    33	5 ;      NG3P3     CG3C53       HGA1
   12    11    33	5 ;     NG2R53     CG3C53       HGA1
   14    12    11	5 ;     CG2R53     NG2R53     CG3C53
   14    12    13	5 ;     CG2R53     NG2R53      CG331
   11    12    13	5 ;     CG3C53     NG2R53      CG331
   12    13    34	5 ;     NG2R53      CG331       HGA3
   12    13    35	5 ;     NG2R53      CG331       HGA3
   12    13    36	5 ;     NG2R53      CG331       HGA3
   34    13    35	5 ;       HGA3      CG331       HGA3
   34    13    36	5 ;       HGA3      CG331       HGA3
   35    13    36	5 ;       HGA3      CG331       HGA3
    8    14    15	5 ;     CG3C50     CG2R53      OG2D1
    8    14    12	5 ;     CG3C50     CG2R53     NG2R53
   15    14    12	5 ;      OG2D1     CG2R53     NG2R53
   17    16     8	5 ;      CG301      CG321     CG3C50
   17    16    37	5 ;      CG301      CG321       HGA2
   17    16    38	5 ;      CG301      CG321       HGA2
    8    16    37	5 ;     CG3C50      CG321       HGA2
    8    16    38	5 ;     CG3C50      CG321       HGA2
   37    16    38	5 ;       HGA2      CG321       HGA2
   19    17     1	5 ;      CG331      CG301     OG3R60
   19    17    18	5 ;      CG331      CG301      CG331
   19    17    16	5 ;      CG331      CG301      CG321
    1    17    18	5 ;     OG3R60      CG301      CG331
    1    17    16	5 ;     OG3R60      CG301      CG321
   18    17    16	5 ;      CG331      CG301      CG321
   17    18    39	5 ;      CG301      CG331       HGA3
   17    18    40	5 ;      CG301      CG331       HGA3
   17    18    41	5 ;      CG301      CG331       HGA3
   39    18    40	5 ;       HGA3      CG331       HGA3
   39    18    41	5 ;       HGA3      CG331       HGA3
   40    18    41	5 ;       HGA3      CG331       HGA3
   17    19    42	5 ;      CG301      CG331       HGA3
   17    19    43	5 ;      CG301      CG331       HGA3
   17    19    44	5 ;      CG301      CG331       HGA3
   42    19    43	5 ;       HGA3      CG331       HGA3
   42    19    44	5 ;       HGA3      CG331       HGA3
   43    19    44	5 ;       HGA3      CG331       HGA3
   11    20    21	5 ;     CG3C53      NG3P3       HGP2
   11    20    22	5 ;     CG3C53      NG3P3       HGP2
   11    20    45	5 ;     CG3C53      NG3P3       HGP2
   21    20    22	5 ;       HGP2      NG3P3       HGP2
   21    20    45	5 ;       HGP2      NG3P3       HGP2
   22    20    45	5 ;       HGP2      NG3P3       HGP2
    5    23    28	5 ;     CG2R61      NG301      CG321
    5    23    24	5 ;     CG2R61      NG301      CG321
   28    23    24	5 ;      CG321      NG301      CG321
   23    24    25	5 ;      NG301      CG321      CG321
   23    24    46	5 ;      NG301      CG321       HGA2
   23    24    47	5 ;      NG301      CG321       HGA2
   25    24    46	5 ;      CG321      CG321       HGA2
   25    24    47	5 ;      CG321      CG321       HGA2
   46    24    47	5 ;       HGA2      CG321       HGA2
   24    25    26	5 ;      CG321      CG321      CG321
   24    25    48	5 ;      CG321      CG321       HGA2
   24    25    49	5 ;      CG321      CG321       HGA2
   26    25    48	5 ;      CG321      CG321       HGA2
   26    25    49	5 ;      CG321      CG321       HGA2
   48    25    49	5 ;       HGA2      CG321       HGA2
   27    26    25	5 ;      CG321      CG321      CG321
   27    26    50	5 ;      CG321      CG321       HGA2
   27    26    51	5 ;      CG321      CG321       HGA2
   25    26    50	5 ;      CG321      CG321       HGA2
   25    26    51	5 ;      CG321      CG321       HGA2
   50    26    51	5 ;       HGA2      CG321       HGA2
   28    27    26	5 ;      CG321      CG321      CG321
   28    27    52	5 ;      CG321      CG321       HGA2
   28    27    53	5 ;      CG321      CG321       HGA2
   26    27    52	5 ;      CG321      CG321       HGA2
   26    27    53	5 ;      CG321      CG321       HGA2
   52    27    53	5 ;       HGA2      CG321       HGA2
   23    28    27	5 ;      NG301      CG321      CG321
   23    28    54	5 ;      NG301      CG321       HGA2
   23    28    55	5 ;      NG301      CG321       HGA2
   27    28    54	5 ;      CG321      CG321       HGA2
   27    28    55	5 ;      CG321      CG321       HGA2
   54    28    55	5 ;       HGA2      CG321       HGA2

[ dihedrals ]
;	ai	  aj	ak	  al funct			  c0			c1			  c2			c3			  c4			c5
    2     1    17    19	 9 ;     CG2R61     OG3R60      CG301      CG331
    2     1    17    18	 9 ;     CG2R61     OG3R60      CG301      CG331
    2     1    17    16	 9 ;     CG2R61     OG3R60      CG301      CG321
   17     1     2     7	 9 ;      CG301     OG3R60     CG2R61     CG2R61
   17     1     2     3	 9 ;      CG301     OG3R60     CG2R61     CG2R61
    1     2     7     6	 9 ;     OG3R60     CG2R61     CG2R61     CG2R61
    1     2     7    31	 9 ;     OG3R60     CG2R61     CG2R61      HGR61
    3     2     7     6	 9 ;     CG2R61     CG2R61     CG2R61     CG2R61
    3     2     7    31	 9 ;     CG2R61     CG2R61     CG2R61      HGR61
    1     2     3     8	 9 ;     OG3R60     CG2R61     CG2R61     CG3C50
    1     2     3     4	 9 ;     OG3R60     CG2R61     CG2R61     CG2R61
    7     2     3     8	 9 ;     CG2R61     CG2R61     CG2R61     CG3C50
    7     2     3     4	 9 ;     CG2R61     CG2R61     CG2R61     CG2R61
    2     3     8    16	 9 ;     CG2R61     CG2R61     CG3C50      CG321
    2     3     8     9	 9 ;     CG2R61     CG2R61     CG3C50      NG3P2
    2     3     8    14	 9 ;     CG2R61     CG2R61     CG3C50     CG2R53
    4     3     8    16	 9 ;     CG2R61     CG2R61     CG3C50      CG321
    4     3     8     9	 9 ;     CG2R61     CG2R61     CG3C50      NG3P2
    4     3     8    14	 9 ;     CG2R61     CG2R61     CG3C50     CG2R53
    2     3     4     5	 9 ;     CG2R61     CG2R61     CG2R61     CG2R61
    2     3     4    29	 9 ;     CG2R61     CG2R61     CG2R61      HGR61
    8     3     4     5	 9 ;     CG3C50     CG2R61     CG2R61     CG2R61
    8     3     4    29	 9 ;     CG3C50     CG2R61     CG2R61      HGR61
    3     4     5     6	 9 ;     CG2R61     CG2R61     CG2R61     CG2R61
    3     4     5    23	 9 ;     CG2R61     CG2R61     CG2R61      NG301
   29     4     5     6	 9 ;      HGR61     CG2R61     CG2R61     CG2R61
   29     4     5    23	 9 ;      HGR61     CG2R61     CG2R61      NG301
    4     5     6     7	 9 ;     CG2R61     CG2R61     CG2R61     CG2R61
    4     5     6    30	 9 ;     CG2R61     CG2R61     CG2R61      HGR61
   23     5     6     7	 9 ;      NG301     CG2R61     CG2R61     CG2R61
   23     5     6    30	 9 ;      NG301     CG2R61     CG2R61      HGR61
    6     5    23    28	 9 ;     CG2R61     CG2R61      NG301      CG321
    6     5    23    24	 9 ;     CG2R61     CG2R61      NG301      CG321
    4     5    23    28	 9 ;     CG2R61     CG2R61      NG301      CG321
    4     5    23    24	 9 ;     CG2R61     CG2R61      NG301      CG321
    5     6     7     2	 9 ;     CG2R61     CG2R61     CG2R61     CG2R61
    5     6     7    31	 9 ;     CG2R61     CG2R61     CG2R61      HGR61
   30     6     7     2	 9 ;      HGR61     CG2R61     CG2R61     CG2R61
   30     6     7    31	 9 ;      HGR61     CG2R61     CG2R61      HGR61
    3     8    16    17	 9 ;     CG2R61     CG3C50      CG321      CG301
    3     8    16    37	 9 ;     CG2R61     CG3C50      CG321       HGA2
    3     8    16    38	 9 ;     CG2R61     CG3C50      CG321       HGA2
    9     8    16    17	 9 ;      NG3P2     CG3C50      CG321      CG301
    9     8    16    37	 9 ;      NG3P2     CG3C50      CG321       HGA2
    9     8    16    38	 9 ;      NG3P2     CG3C50      CG321       HGA2
   14     8    16    17	 9 ;     CG2R53     CG3C50      CG321      CG301
   14     8    16    37	 9 ;     CG2R53     CG3C50      CG321       HGA2
   14     8    16    38	 9 ;     CG2R53     CG3C50      CG321       HGA2
   16     8     9    10	 9 ;      CG321     CG3C50      NG3P2       HGP2
   16     8     9    11	 9 ;      CG321     CG3C50      NG3P2     CG3C53
   16     8     9    32	 9 ;      CG321     CG3C50      NG3P2       HGP2
    3     8     9    10	 9 ;     CG2R61     CG3C50      NG3P2       HGP2
    3     8     9    11	 9 ;     CG2R61     CG3C50      NG3P2     CG3C53
    3     8     9    32	 9 ;     CG2R61     CG3C50      NG3P2       HGP2
   14     8     9    10	 9 ;     CG2R53     CG3C50      NG3P2       HGP2
   14     8     9    11	 9 ;     CG2R53     CG3C50      NG3P2     CG3C53
   14     8     9    32	 9 ;     CG2R53     CG3C50      NG3P2       HGP2
   16     8    14    15	 9 ;      CG321     CG3C50     CG2R53      OG2D1
   16     8    14    12	 9 ;      CG321     CG3C50     CG2R53     NG2R53
    3     8    14    15	 9 ;     CG2R61     CG3C50     CG2R53      OG2D1
    3     8    14    12	 9 ;     CG2R61     CG3C50     CG2R53     NG2R53
    9     8    14    15	 9 ;      NG3P2     CG3C50     CG2R53      OG2D1
    9     8    14    12	 9 ;      NG3P2     CG3C50     CG2R53     NG2R53
   10     9    11    20	 9 ;       HGP2      NG3P2     CG3C53      NG3P3
   10     9    11    12	 9 ;       HGP2      NG3P2     CG3C53     NG2R53
   10     9    11    33	 9 ;       HGP2      NG3P2     CG3C53       HGA1
    8     9    11    20	 9 ;     CG3C50      NG3P2     CG3C53      NG3P3
    8     9    11    12	 9 ;     CG3C50      NG3P2     CG3C53     NG2R53
    8     9    11    33	 9 ;     CG3C50      NG3P2     CG3C53       HGA1
   32     9    11    20	 9 ;       HGP2      NG3P2     CG3C53      NG3P3
   32     9    11    12	 9 ;       HGP2      NG3P2     CG3C53     NG2R53
   32     9    11    33	 9 ;       HGP2      NG3P2     CG3C53       HGA1
    9    11    20    21	 9 ;      NG3P2     CG3C53      NG3P3       HGP2
    9    11    20    22	 9 ;      NG3P2     CG3C53      NG3P3       HGP2
    9    11    20    45	 9 ;      NG3P2     CG3C53      NG3P3       HGP2
   12    11    20    21	 9 ;     NG2R53     CG3C53      NG3P3       HGP2
   12    11    20    22	 9 ;     NG2R53     CG3C53      NG3P3       HGP2
   12    11    20    45	 9 ;     NG2R53     CG3C53      NG3P3       HGP2
   33    11    20    21	 9 ;       HGA1     CG3C53      NG3P3       HGP2
   33    11    20    22	 9 ;       HGA1     CG3C53      NG3P3       HGP2
   33    11    20    45	 9 ;       HGA1     CG3C53      NG3P3       HGP2
    9    11    12    14	 9 ;      NG3P2     CG3C53     NG2R53     CG2R53
    9    11    12    13	 9 ;      NG3P2     CG3C53     NG2R53      CG331
   20    11    12    14	 9 ;      NG3P3     CG3C53     NG2R53     CG2R53
   20    11    12    13	 9 ;      NG3P3     CG3C53     NG2R53      CG331
   33    11    12    14	 9 ;       HGA1     CG3C53     NG2R53     CG2R53
   33    11    12    13	 9 ;       HGA1     CG3C53     NG2R53      CG331
   11    12    14     8	 9 ;     CG3C53     NG2R53     CG2R53     CG3C50
   11    12    14    15	 9 ;     CG3C53     NG2R53     CG2R53      OG2D1
   13    12    14     8	 9 ;      CG331     NG2R53     CG2R53     CG3C50
   13    12    14    15	 9 ;      CG331     NG2R53     CG2R53      OG2D1
   14    12    13    34	 9 ;     CG2R53     NG2R53      CG331       HGA3
   14    12    13    35	 9 ;     CG2R53     NG2R53      CG331       HGA3
   14    12    13    36	 9 ;     CG2R53     NG2R53      CG331       HGA3
   11    12    13    34	 9 ;     CG3C53     NG2R53      CG331       HGA3
   11    12    13    35	 9 ;     CG3C53     NG2R53      CG331       HGA3
   11    12    13    36	 9 ;     CG3C53     NG2R53      CG331       HGA3
    8    16    17    19	 9 ;     CG3C50      CG321      CG301      CG331
    8    16    17     1	 9 ;     CG3C50      CG321      CG301     OG3R60
    8    16    17    18	 9 ;     CG3C50      CG321      CG301      CG331
   37    16    17    19	 9 ;       HGA2      CG321      CG301      CG331
   37    16    17     1	 9 ;       HGA2      CG321      CG301     OG3R60
   37    16    17    18	 9 ;       HGA2      CG321      CG301      CG331
   38    16    17    19	 9 ;       HGA2      CG321      CG301      CG331
   38    16    17     1	 9 ;       HGA2      CG321      CG301     OG3R60
   38    16    17    18	 9 ;       HGA2      CG321      CG301      CG331
    1    17    19    42	 9 ;     OG3R60      CG301      CG331       HGA3
    1    17    19    43	 9 ;     OG3R60      CG301      CG331       HGA3
    1    17    19    44	 9 ;     OG3R60      CG301      CG331       HGA3
   18    17    19    42	 9 ;      CG331      CG301      CG331       HGA3
   18    17    19    43	 9 ;      CG331      CG301      CG331       HGA3
   18    17    19    44	 9 ;      CG331      CG301      CG331       HGA3
   16    17    19    42	 9 ;      CG321      CG301      CG331       HGA3
   16    17    19    43	 9 ;      CG321      CG301      CG331       HGA3
   16    17    19    44	 9 ;      CG321      CG301      CG331       HGA3
   19    17    18    39	 9 ;      CG331      CG301      CG331       HGA3
   19    17    18    40	 9 ;      CG331      CG301      CG331       HGA3
   19    17    18    41	 9 ;      CG331      CG301      CG331       HGA3
    1    17    18    39	 9 ;     OG3R60      CG301      CG331       HGA3
    1    17    18    40	 9 ;     OG3R60      CG301      CG331       HGA3
    1    17    18    41	 9 ;     OG3R60      CG301      CG331       HGA3
   16    17    18    39	 9 ;      CG321      CG301      CG331       HGA3
   16    17    18    40	 9 ;      CG321      CG301      CG331       HGA3
   16    17    18    41	 9 ;      CG321      CG301      CG331       HGA3
    5    23    28    27	 9 ;     CG2R61      NG301      CG321      CG321
    5    23    28    54	 9 ;     CG2R61      NG301      CG321       HGA2
    5    23    28    55	 9 ;     CG2R61      NG301      CG321       HGA2
   24    23    28    27	 9 ;      CG321      NG301      CG321      CG321
   24    23    28    54	 9 ;      CG321      NG301      CG321       HGA2
   24    23    28    55	 9 ;      CG321      NG301      CG321       HGA2
    5    23    24    25	 9 ;     CG2R61      NG301      CG321      CG321
    5    23    24    46	 9 ;     CG2R61      NG301      CG321       HGA2
    5    23    24    47	 9 ;     CG2R61      NG301      CG321       HGA2
   28    23    24    25	 9 ;      CG321      NG301      CG321      CG321
   28    23    24    46	 9 ;      CG321      NG301      CG321       HGA2
   28    23    24    47	 9 ;      CG321      NG301      CG321       HGA2
   23    24    25    26	 9 ;      NG301      CG321      CG321      CG321
   23    24    25    48	 9 ;      NG301      CG321      CG321       HGA2
   23    24    25    49	 9 ;      NG301      CG321      CG321       HGA2
   46    24    25    26	 9 ;       HGA2      CG321      CG321      CG321
   46    24    25    48	 9 ;       HGA2      CG321      CG321       HGA2
   46    24    25    49	 9 ;       HGA2      CG321      CG321       HGA2
   47    24    25    26	 9 ;       HGA2      CG321      CG321      CG321
   47    24    25    48	 9 ;       HGA2      CG321      CG321       HGA2
   47    24    25    49	 9 ;       HGA2      CG321      CG321       HGA2
   24    25    26    27	 9 ;      CG321      CG321      CG321      CG321
   24    25    26    50	 9 ;      CG321      CG321      CG321       HGA2
   24    25    26    51	 9 ;      CG321      CG321      CG321       HGA2
   48    25    26    27	 9 ;       HGA2      CG321      CG321      CG321
   48    25    26    50	 9 ;       HGA2      CG321      CG321       HGA2
   48    25    26    51	 9 ;       HGA2      CG321      CG321       HGA2
   49    25    26    27	 9 ;       HGA2      CG321      CG321      CG321
   49    25    26    50	 9 ;       HGA2      CG321      CG321       HGA2
   49    25    26    51	 9 ;       HGA2      CG321      CG321       HGA2
   25    26    27    28	 9 ;      CG321      CG321      CG321      CG321
   25    26    27    52	 9 ;      CG321      CG321      CG321       HGA2
   25    26    27    53	 9 ;      CG321      CG321      CG321       HGA2
   50    26    27    28	 9 ;       HGA2      CG321      CG321      CG321
   50    26    27    52	 9 ;       HGA2      CG321      CG321       HGA2
   50    26    27    53	 9 ;       HGA2      CG321      CG321       HGA2
   51    26    27    28	 9 ;       HGA2      CG321      CG321      CG321
   51    26    27    52	 9 ;       HGA2      CG321      CG321       HGA2
   51    26    27    53	 9 ;       HGA2      CG321      CG321       HGA2
   26    27    28    23	 9 ;      CG321      CG321      CG321      NG301
   26    27    28    54	 9 ;      CG321      CG321      CG321       HGA2
   26    27    28    55	 9 ;      CG321      CG321      CG321       HGA2
   52    27    28    23	 9 ;       HGA2      CG321      CG321      NG301
   52    27    28    54	 9 ;       HGA2      CG321      CG321       HGA2
   52    27    28    55	 9 ;       HGA2      CG321      CG321       HGA2
   53    27    28    23	 9 ;       HGA2      CG321      CG321      NG301
   53    27    28    54	 9 ;       HGA2      CG321      CG321       HGA2
   53    27    28    55	 9 ;       HGA2      CG321      CG321       HGA2

[ dihedrals ]
;	ai	  aj	ak	  al funct			  c0			c1			  c2			c3
   14     8    12    15	 2

