Guyana Rwanda Oman Macau Angola Cameroon Senegal
   64
    1LIG      S    1  -1.836   0.609  -1.437
    1LIG     O1    2  -1.749   0.521  -1.359
    1LIG     O2    3  -1.966   0.647  -1.390
    1LIG     C1    4  -1.741   0.754  -1.477
    1LIG     C2    5  -1.611   0.713  -1.547
    1LIG     C3    6  -1.640   0.633  -1.677
    1LIG     C4    7  -1.718   0.500  -1.654
    1LIG     C5    8  -1.855   0.528  -1.593
    1LIG     N1    9  -1.634   0.405  -1.574
    1LIG     H1   10  -1.572   0.455  -1.508
    1LIG     H2   11  -1.694   0.345  -1.513
    1LIG     C6   12  -1.550   0.305  -1.647
    1LIG     C7   13  -1.406   0.349  -1.638
    1LIG     C8   14  -1.334   0.322  -1.522
    1LIG     C9   15  -1.195   0.345  -1.514
    1LIG    C10   16  -1.133   0.400  -1.628
    1LIG    C11   17  -1.204   0.429  -1.744
    1LIG    C12   18  -1.341   0.402  -1.750
    1LIG    C13   19  -1.113   0.307  -1.390
    1LIG    C14   20  -0.964   0.283  -1.420
    1LIG    C15   21  -1.121   0.422  -1.287
    1LIG    C16   22  -1.169   0.178  -1.326
    1LIG     O3   23  -1.715   0.714  -1.766
    1LIG     H3   24  -1.773   0.656  -1.820
    1LIG    C17   25  -1.520   0.836  -1.570
    1LIG    C18   26  -1.378   0.788  -1.593
    1LIG    C19   27  -1.318   0.809  -1.719
    1LIG    C20   28  -1.179   0.804  -1.730
    1LIG    C21   29  -1.103   0.768  -1.619
    1LIG    C22   30  -1.087   0.833  -1.836
    1LIG     N2   31  -0.971   0.774  -1.656
    1LIG    C23   32  -1.161   0.733  -1.496
    1LIG    C24   33  -0.960   0.816  -1.786
    1LIG     H4   34  -0.893   0.751  -1.596
    1LIG    C25   35  -1.300   0.744  -1.485
    1LIG    HC2   36  -1.799   0.818  -1.544
    1LIG    HC3   37  -1.718   0.809  -1.386
    1LIG     HC   38  -1.558   0.646  -1.479
    1LIG    HC1   39  -1.544   0.609  -1.725
    1LIG    HC4   40  -1.735   0.455  -1.752
    1LIG    HC5   41  -1.908   0.434  -1.579
    1LIG    HC6   42  -1.912   0.592  -1.661
    1LIG    HC7   43  -1.561   0.207  -1.601
    1LIG    HC8   44  -1.581   0.300  -1.751
    1LIG    HC9   45  -1.385   0.284  -1.435
    1LIG   HC10   46  -1.026   0.420  -1.625
    1LIG   HC11   47  -1.154   0.471  -1.829
    1LIG   HC12   48  -1.396   0.423  -1.841
    1LIG   HC13   49  -0.921   0.372  -1.465
    1LIG   HC14   50  -0.911   0.260  -1.327
    1LIG   HC15   51  -0.954   0.199  -1.489
    1LIG   HC16   52  -1.225   0.442  -1.263
    1LIG   HC17   53  -1.076   0.512  -1.330
    1LIG   HC18   54  -1.068   0.394  -1.197
    1LIG   HC19   55  -1.275   0.191  -1.303
    1LIG   HC20   56  -1.114   0.156  -1.234
    1LIG   HC21   57  -1.157   0.095  -1.396
    1LIG   HC22   58  -1.554   0.892  -1.657
    1LIG   HC23   59  -1.522   0.900  -1.482
    1LIG   HC24   60  -1.380   0.828  -1.806
    1LIG   HC25   61  -1.113   0.863  -1.936
    1LIG   HC26   62  -1.101   0.699  -1.414
    1LIG   HC27   63  -0.868   0.833  -1.840
    1LIG   HC28   64  -1.348   0.718  -1.392
   0.00000   0.00000   0.00000
