Gromacs Runs One Microsecond At Cannonball Speeds
   85
    1LIG     C1    1  -1.295   0.616  -1.586
    1LIG     C2    2  -1.296   0.751  -1.664
    1LIG     C3    3  -1.428   0.825  -1.657
    1LIG     C4    4  -1.458   0.925  -1.749
    1LIG     C5    5  -1.579   0.996  -1.742
    1LIG     C6    6  -1.671   0.966  -1.643
    1LIG     C7    7  -1.644   0.864  -1.551
    1LIG     C8    8  -1.524   0.794  -1.559
    1LIG     N1    9  -1.305   0.495  -1.669
    1LIG     C9   10  -1.405   0.400  -1.680
    1LIG     O1   11  -1.369   0.287  -1.713
    1LIG     H1   12  -1.218   0.443  -1.678
    1LIG    C10   13  -1.543   0.433  -1.649
    1LIG    C11   14  -1.630   0.516  -1.727
    1LIG    C12   15  -1.612   0.592  -1.844
    1LIG    C13   16  -1.756   0.515  -1.667
    1LIG    C14   17  -1.720   0.667  -1.890
    1LIG    C15   18  -1.839   0.662  -1.820
    1LIG     N2   19  -1.863   0.585  -1.711
    1LIG     HN   20  -1.955   0.581  -1.665
    1LIG     N3   21  -1.748   0.433  -1.554
    1LIG    C16   22  -1.614   0.399  -1.537
    1LIG    C17   23  -1.846   0.394  -1.460
    1LIG     O2   24  -1.817   0.408  -1.342
    1LIG     N4   25  -1.951   0.315  -1.508
    1LIG    C18   26  -1.980   0.292  -1.649
    1LIG    C19   27  -2.050   0.267  -1.410
    1LIG    C20   28  -2.112   0.128  -1.439
    1LIG    C21   29  -2.155   0.049  -1.315
    1LIG    C22   30  -2.185  -0.096  -1.350
    1LIG    C23   31  -1.188   0.609  -1.473
    1LIG     O3   32  -1.147   0.742  -1.435
    1LIG     H2   33  -1.171   0.754  -1.341
    1LIG    C24   34  -1.228   0.536  -1.342
    1LIG     N5   35  -1.177   0.395  -1.327
    1LIG     H3   36  -1.122   0.387  -1.239
    1LIG     H4   37  -1.108   0.377  -1.401
    1LIG    C25   38  -1.271   0.280  -1.328
    1LIG    C26   39  -1.211   0.147  -1.369
    1LIG    C27   40  -1.228   0.036  -1.284
    1LIG    C28   41  -1.168  -0.087  -1.313
    1LIG    C29   42  -1.089  -0.101  -1.426
    1LIG    C30   43  -1.069   0.008  -1.511
    1LIG    C31   44  -1.128   0.133  -1.483
    1LIG     O4   45  -1.110   0.245  -1.559
    1LIG    C32   46  -1.058   0.225  -1.691
    1LIG     HC   47  -1.390   0.617  -1.531
    1LIG    HC2   48  -1.274   0.729  -1.769
    1LIG    HC3   49  -1.217   0.815  -1.624
    1LIG    HC1   50  -1.387   0.949  -1.827
    1LIG    HC4   51  -1.600   1.073  -1.814
    1LIG    HC5   52  -1.764   1.021  -1.636
    1LIG    HC6   53  -1.716   0.840  -1.475
    1LIG    HC7   54  -1.504   0.714  -1.488
    1LIG    HC8   55  -1.518   0.592  -1.896
    1LIG    HC9   56  -1.711   0.729  -1.978
    1LIG   HC10   57  -1.920   0.723  -1.856
    1LIG   HC11   58  -1.573   0.354  -1.449
    1LIG   HC12   59  -1.922   0.361  -1.710
    1LIG   HC13   60  -2.087   0.307  -1.667
    1LIG   HC14   61  -1.954   0.190  -1.675
    1LIG   HC15   62  -2.001   0.262  -1.313
    1LIG   HC16   63  -2.131   0.340  -1.404
    1LIG   HC17   64  -2.200   0.143  -1.502
    1LIG   HC18   65  -2.039   0.069  -1.494
    1LIG   HC19   66  -2.245   0.095  -1.273
    1LIG   HC20   67  -2.075   0.053  -1.241
    1LIG   HC21   68  -2.215  -0.150  -1.261
    1LIG   HC22   69  -2.265  -0.100  -1.424
    1LIG   HC23   70  -2.095  -0.143  -1.392
    1LIG   HC24   71  -1.100   0.558  -1.514
    1LIG   HC25   72  -1.191   0.594  -1.258
    1LIG   HC26   73  -1.337   0.533  -1.337
    1LIG   HC27   74  -1.311   0.268  -1.227
    1LIG   HC28   75  -1.353   0.303  -1.395
    1LIG   HC29   76  -1.289   0.046  -1.196
    1LIG   HC30   77  -1.182  -0.171  -1.246
    1LIG   HC31   78  -1.043  -0.196  -1.449
    1LIG   HC32   79  -1.009  -0.004  -1.599
    1LIG   HC33   80  -1.061   0.318  -1.746
    1LIG   HC34   81  -0.955   0.189  -1.684
    1LIG   HC35   82  -1.119   0.150  -1.742
    1LIG    H42   83  -1.577   0.343  -1.701
    1LIG    H43   84  -1.786   0.430  -1.728
    1LIG    H44   85  -1.634   0.301  -1.579
   0.00000   0.00000   0.00000
