; Created by cgenff_charmm2gmx.py

[ moleculetype ]
; Name			   nrexcl
LIG				 3

[ atoms ]
;	 nr		  type	resnr residue  atom   cgnr	   charge		mass  typeB    chargeB		massB
; residue	 1 LIG rtp LIG q	qsum
     1      CG311      1    LIG     C1      1      0.017     12.011   ;
     2      CG321      1    LIG     C2      2     -0.111     12.011   ;
     3     CG2R61      1    LIG     C3      3     -0.019     12.011   ;
     4     CG2R61      1    LIG     C4      4     -0.123     12.011   ;
     5     CG2R61      1    LIG     C5      5     -0.112     12.011   ;
     6     CG2R61      1    LIG     C6      6     -0.116     12.011   ;
     7     CG2R61      1    LIG     C7      7     -0.112     12.011   ;
     8     CG2R61      1    LIG     C8      8     -0.123     12.011   ;
     9      NG2S1      1    LIG     N1      9     -0.384     14.007   ;
    10      CG2O1      1    LIG     C9     10      0.508     12.011   ;
    11      OG2D1      1    LIG     O1     11     -0.499     15.999   ;
    12       HGP1      1    LIG     H1     12      0.263      1.008   ;
    13     CG3C51      1    LIG    C10     13     -0.063     12.011   ;
    14     CG2R51      1    LIG    C11     14     -0.428     12.011   ;
    15     CG2DC1      1    LIG    C12     15      0.192     12.011   ;
    16     CG3RC1      1    LIG    C13     16      0.224     12.011   ;
    17     CG2DC2      1    LIG    C14     17     -0.225     12.011   ;
    18     CG2D2O      1    LIG    C15     18      0.189     12.011   ;
    19      NG311      1    LIG     N2     19     -0.908     14.007   ;
    20     HGPAM1      1    LIG     HN     20      0.450      1.008   ;
    21      NG2S0      1    LIG     N3     21     -0.261     14.007   ;
    22     CG3C52      1    LIG    C16     22     -0.066     12.011   ;
    23      CG2O6      1    LIG    C17     23      0.499     12.011   ;
    24      OG2D1      1    LIG     O2     24     -0.488     15.999   ;
    25      NG2S0      1    LIG     N4     25     -0.182     14.007   ;
    26      CG331      1    LIG    C18     26     -0.224     12.011   ;
    27      CG321      1    LIG    C19     27     -0.072     12.011   ;
    28      CG321      1    LIG    C20     28     -0.133     12.011   ;
    29      CG321      1    LIG    C21     29     -0.194     12.011   ;
    30      CG331      1    LIG    C22     30     -0.270     12.011   ;
    31      CG311      1    LIG    C23     31      0.094     12.011   ;
    32      OG311      1    LIG     O3     32     -0.625     15.999   ;
    33       HGP1      1    LIG     H2     33      0.415      1.008   ;
    34      CG324      1    LIG    C24     34      0.178     12.011   ;
    35      NG3P2      1    LIG     N5     35     -0.444     14.007   ;
    36       HGP2      1    LIG     H3     36      0.348      1.008   ;
    37       HGP2      1    LIG     H4     37      0.348      1.008   ;
    38      CG324      1    LIG    C25     38      0.202     12.011   ;
    39     CG2R61      1    LIG    C26     39     -0.148     12.011   ;
    40     CG2R61      1    LIG    C27     40     -0.116     12.011   ;
    41     CG2R61      1    LIG    C28     41     -0.111     12.011   ;
    42     CG2R61      1    LIG    C29     42     -0.113     12.011   ;
    43     CG2R61      1    LIG    C30     43     -0.116     12.011   ;
    44     CG2R61      1    LIG    C31     44      0.327     12.011   ;
    45      OG301      1    LIG     O4     45     -0.357     15.999   ;
    46      CG331      1    LIG    C32     46     -0.094     12.011   ;
    47       HGA1      1    LIG     HC     47      0.090      1.008   ;
    48       HGA2      1    LIG    HC2     48      0.090      1.008   ;
    49       HGA2      1    LIG    HC3     49      0.090      1.008   ;
    50      HGR61      1    LIG    HC1     50      0.116      1.008   ;
    51      HGR61      1    LIG    HC4     51      0.116      1.008   ;
    52      HGR61      1    LIG    HC5     52      0.116      1.008   ;
    53      HGR61      1    LIG    HC6     53      0.116      1.008   ;
    54      HGR61      1    LIG    HC7     54      0.116      1.008   ;
    55       HGA4      1    LIG    HC8     55      0.198      1.008   ;
    56       HGA4      1    LIG    HC9     56      0.153      1.008   ;
    57       HGA4      1    LIG   HC10     57      0.158      1.008   ;
    58       HGA2      1    LIG   HC11     58      0.090      1.008   ;
    59       HGA3      1    LIG   HC12     59      0.090      1.008   ;
    60       HGA3      1    LIG   HC13     60      0.090      1.008   ;
    61       HGA3      1    LIG   HC14     61      0.090      1.008   ;
    62       HGA2      1    LIG   HC15     62      0.090      1.008   ;
    63       HGA2      1    LIG   HC16     63      0.090      1.008   ;
    64       HGA2      1    LIG   HC17     64      0.090      1.008   ;
    65       HGA2      1    LIG   HC18     65      0.090      1.008   ;
    66       HGA2      1    LIG   HC19     66      0.090      1.008   ;
    67       HGA2      1    LIG   HC20     67      0.090      1.008   ;
    68       HGA3      1    LIG   HC21     68      0.090      1.008   ;
    69       HGA3      1    LIG   HC22     69      0.090      1.008   ;
    70       HGA3      1    LIG   HC23     70      0.090      1.008   ;
    71       HGA1      1    LIG   HC24     71      0.090      1.008   ;
    72       HGA2      1    LIG   HC25     72      0.090      1.008   ;
    73       HGA2      1    LIG   HC26     73      0.090      1.008   ;
    74       HGA2      1    LIG   HC27     74      0.090      1.008   ;
    75       HGA2      1    LIG   HC28     75      0.090      1.008   ;
    76      HGR61      1    LIG   HC29     76      0.116      1.008   ;
    77      HGR61      1    LIG   HC30     77      0.116      1.008   ;
    78      HGR61      1    LIG   HC31     78      0.116      1.008   ;
    79      HGR61      1    LIG   HC32     79      0.116      1.008   ;
    80       HGA3      1    LIG   HC33     80      0.090      1.008   ;
    81       HGA3      1    LIG   HC34     81      0.090      1.008   ;
    82       HGA3      1    LIG   HC35     82      0.090      1.008   ;
    83       HGA1      1    LIG    H42     83      0.090      1.008   ;
    84       HGA1      1    LIG    H43     84      0.090      1.008   ;
    85       HGA2      1    LIG    H44     85      0.090      1.008   ;

[ bonds ]
;	ai	  aj funct			  c0			c1			  c2			c3
    1     2	 1 ;       CG311      CG321
    1    31	 1 ;       CG311      CG311
    1     9	 1 ;       CG311      NG2S1
    1    47	 1 ;       CG311       HGA1
    2     3	 1 ;       CG321     CG2R61
    2    48	 1 ;       CG321       HGA2
    2    49	 1 ;       CG321       HGA2
    3     4	 1 ;      CG2R61     CG2R61
    3     8	 1 ;      CG2R61     CG2R61
    4     5	 1 ;      CG2R61     CG2R61
    4    50	 1 ;      CG2R61      HGR61
    5     6	 1 ;      CG2R61     CG2R61
    5    51	 1 ;      CG2R61      HGR61
    6     7	 1 ;      CG2R61     CG2R61
    6    52	 1 ;      CG2R61      HGR61
    7     8	 1 ;      CG2R61     CG2R61
    7    53	 1 ;      CG2R61      HGR61
    8    54	 1 ;      CG2R61      HGR61
    9    12	 1 ;       NG2S1       HGP1
    9    10	 1 ;       NG2S1      CG2O1
   10    11	 1 ;       CG2O1      OG2D1
   10    13	 1 ;       CG2O1     CG3C51
   13    14	 1 ;      CG3C51     CG2R51
   13    22	 1 ;      CG3C51     CG3C52
   13    83	 1 ;      CG3C51       HGA1
   14    15	 1 ;      CG2R51     CG2DC1
   14    16	 1 ;      CG2R51     CG3RC1
   15    17	 1 ;      CG2DC1     CG2DC2
   15    55	 1 ;      CG2DC1       HGA4
   16    19	 1 ;      CG3RC1      NG311
   16    21	 1 ;      CG3RC1      NG2S0
   16    84	 1 ;      CG3RC1       HGA1
   17    18	 1 ;      CG2DC2     CG2D2O
   17    56	 1 ;      CG2DC2       HGA4
   18    19	 1 ;      CG2D2O      NG311
   18    57	 1 ;      CG2D2O       HGA4
   19    20	 1 ;       NG311     HGPAM1
   21    22	 1 ;       NG2S0     CG3C52
   21    23	 1 ;       NG2S0      CG2O6
   22    58	 1 ;      CG3C52       HGA2
   22    85	 1 ;      CG3C52       HGA2
   23    24	 1 ;       CG2O6      OG2D1
   23    25	 1 ;       CG2O6      NG2S0
   25    26	 1 ;       NG2S0      CG331
   25    27	 1 ;       NG2S0      CG321
   26    59	 1 ;       CG331       HGA3
   26    60	 1 ;       CG331       HGA3
   26    61	 1 ;       CG331       HGA3
   27    28	 1 ;       CG321      CG321
   27    62	 1 ;       CG321       HGA2
   27    63	 1 ;       CG321       HGA2
   28    29	 1 ;       CG321      CG321
   28    64	 1 ;       CG321       HGA2
   28    65	 1 ;       CG321       HGA2
   29    30	 1 ;       CG321      CG331
   29    66	 1 ;       CG321       HGA2
   29    67	 1 ;       CG321       HGA2
   30    68	 1 ;       CG331       HGA3
   30    69	 1 ;       CG331       HGA3
   30    70	 1 ;       CG331       HGA3
   31    32	 1 ;       CG311      OG311
   31    34	 1 ;       CG311      CG324
   31    71	 1 ;       CG311       HGA1
   32    33	 1 ;       OG311       HGP1
   34    35	 1 ;       CG324      NG3P2
   34    72	 1 ;       CG324       HGA2
   34    73	 1 ;       CG324       HGA2
   35    37	 1 ;       NG3P2       HGP2
   35    36	 1 ;       NG3P2       HGP2
   35    38	 1 ;       NG3P2      CG324
   38    39	 1 ;       CG324     CG2R61
   38    74	 1 ;       CG324       HGA2
   38    75	 1 ;       CG324       HGA2
   39    44	 1 ;      CG2R61     CG2R61
   39    40	 1 ;      CG2R61     CG2R61
   40    41	 1 ;      CG2R61     CG2R61
   40    76	 1 ;      CG2R61      HGR61
   41    42	 1 ;      CG2R61     CG2R61
   41    77	 1 ;      CG2R61      HGR61
   42    43	 1 ;      CG2R61     CG2R61
   42    78	 1 ;      CG2R61      HGR61
   43    44	 1 ;      CG2R61     CG2R61
   43    79	 1 ;      CG2R61      HGR61
   44    45	 1 ;      CG2R61      OG301
   45    46	 1 ;       OG301      CG331
   46    80	 1 ;       CG331       HGA3
   46    81	 1 ;       CG331       HGA3
   46    82	 1 ;       CG331       HGA3

[ pairs ]
;	ai	  aj funct			  c0			c1			  c2			c3
    1     4	 1
    1     8	 1
    1    11	 1
    1    13	 1
    1    33	 1
    1    35	 1
    1    72	 1
    1    73	 1
    2    32	 1
    2    34	 1
    2    71	 1
    2    12	 1
    2    10	 1
    2     5	 1
    2    50	 1
    2     7	 1
    2    54	 1
    3    31	 1
    3     9	 1
    3    47	 1
    3     6	 1
    3    51	 1
    3    53	 1
    4    48	 1
    4    49	 1
    4     7	 1
    4    54	 1
    4    52	 1
    5     8	 1
    5    53	 1
    6    50	 1
    6    54	 1
    7    51	 1
    8    48	 1
    8    49	 1
    8    50	 1
    8    52	 1
    9    48	 1
    9    49	 1
    9    32	 1
    9    34	 1
    9    71	 1
    9    14	 1
    9    22	 1
    9    83	 1
   10    31	 1
   10    47	 1
   10    15	 1
   10    16	 1
   10    21	 1
   10    58	 1
   10    85	 1
   11    12	 1
   11    14	 1
   11    22	 1
   11    83	 1
   12    31	 1
   12    47	 1
   12    13	 1
   13    17	 1
   13    55	 1
   13    19	 1
   13    84	 1
   13    23	 1
   14    58	 1
   14    85	 1
   14    18	 1
   14    56	 1
   14    20	 1
   14    23	 1
   15    22	 1
   15    83	 1
   15    19	 1
   15    21	 1
   15    84	 1
   15    57	 1
   16    83	 1
   16    17	 1
   16    55	 1
   16    57	 1
   16    58	 1
   16    85	 1
   16    24	 1
   16    25	 1
   17    20	 1
   18    55	 1
   18    21	 1
   18    84	 1
   19    22	 1
   19    23	 1
   19    56	 1
   20    21	 1
   20    84	 1
   20    57	 1
   21    83	 1
   21    26	 1
   21    27	 1
   22    84	 1
   22    24	 1
   22    25	 1
   23    84	 1
   23    58	 1
   23    85	 1
   23    59	 1
   23    60	 1
   23    61	 1
   23    28	 1
   23    62	 1
   23    63	 1
   24    26	 1
   24    27	 1
   25    29	 1
   25    64	 1
   25    65	 1
   26    28	 1
   26    62	 1
   26    63	 1
   27    59	 1
   27    60	 1
   27    61	 1
   27    30	 1
   27    66	 1
   27    67	 1
   28    68	 1
   28    69	 1
   28    70	 1
   29    62	 1
   29    63	 1
   30    64	 1
   30    65	 1
   31    48	 1
   31    49	 1
   31    37	 1
   31    36	 1
   31    38	 1
   32    47	 1
   32    35	 1
   32    72	 1
   32    73	 1
   33    34	 1
   33    71	 1
   34    47	 1
   34    39	 1
   34    74	 1
   34    75	 1
   35    71	 1
   35    44	 1
   35    40	 1
   36    72	 1
   36    73	 1
   36    39	 1
   36    74	 1
   36    75	 1
   37    72	 1
   37    73	 1
   37    39	 1
   37    74	 1
   37    75	 1
   38    72	 1
   38    73	 1
   38    45	 1
   38    43	 1
   38    41	 1
   38    76	 1
   39    42	 1
   39    77	 1
   39    79	 1
   39    46	 1
   40    74	 1
   40    75	 1
   40    45	 1
   40    43	 1
   40    78	 1
   41    44	 1
   41    79	 1
   42    76	 1
   42    45	 1
   43    77	 1
   43    46	 1
   44    74	 1
   44    75	 1
   44    76	 1
   44    78	 1
   44    80	 1
   44    81	 1
   44    82	 1
   45    79	 1
   47    48	 1
   47    49	 1
   47    71	 1
   50    51	 1
   51    52	 1
   52    53	 1
   53    54	 1
   55    56	 1
   56    57	 1
   58    83	 1
   62    64	 1
   62    65	 1
   63    64	 1
   63    65	 1
   64    66	 1
   64    67	 1
   65    66	 1
   65    67	 1
   66    68	 1
   66    69	 1
   66    70	 1
   67    68	 1
   67    69	 1
   67    70	 1
   71    72	 1
   71    73	 1
   76    77	 1
   77    78	 1
   78    79	 1
   83    85	 1

[ angles ]
;	ai	  aj	ak funct			c0			  c1			c2			  c3
    2     1    31	5 ;      CG321      CG311      CG311
    2     1     9	5 ;      CG321      CG311      NG2S1
    2     1    47	5 ;      CG321      CG311       HGA1
   31     1     9	5 ;      CG311      CG311      NG2S1
   31     1    47	5 ;      CG311      CG311       HGA1
    9     1    47	5 ;      NG2S1      CG311       HGA1
    1     2     3	5 ;      CG311      CG321     CG2R61
    1     2    48	5 ;      CG311      CG321       HGA2
    1     2    49	5 ;      CG311      CG321       HGA2
    3     2    48	5 ;     CG2R61      CG321       HGA2
    3     2    49	5 ;     CG2R61      CG321       HGA2
   48     2    49	5 ;       HGA2      CG321       HGA2
    2     3     4	5 ;      CG321     CG2R61     CG2R61
    2     3     8	5 ;      CG321     CG2R61     CG2R61
    4     3     8	5 ;     CG2R61     CG2R61     CG2R61
    3     4     5	5 ;     CG2R61     CG2R61     CG2R61
    3     4    50	5 ;     CG2R61     CG2R61      HGR61
    5     4    50	5 ;     CG2R61     CG2R61      HGR61
    4     5     6	5 ;     CG2R61     CG2R61     CG2R61
    4     5    51	5 ;     CG2R61     CG2R61      HGR61
    6     5    51	5 ;     CG2R61     CG2R61      HGR61
    5     6     7	5 ;     CG2R61     CG2R61     CG2R61
    5     6    52	5 ;     CG2R61     CG2R61      HGR61
    7     6    52	5 ;     CG2R61     CG2R61      HGR61
    8     7     6	5 ;     CG2R61     CG2R61     CG2R61
    8     7    53	5 ;     CG2R61     CG2R61      HGR61
    6     7    53	5 ;     CG2R61     CG2R61      HGR61
    3     8     7	5 ;     CG2R61     CG2R61     CG2R61
    3     8    54	5 ;     CG2R61     CG2R61      HGR61
    7     8    54	5 ;     CG2R61     CG2R61      HGR61
   12     9     1	5 ;       HGP1      NG2S1      CG311
   12     9    10	5 ;       HGP1      NG2S1      CG2O1
    1     9    10	5 ;      CG311      NG2S1      CG2O1
    9    10    11	5 ;      NG2S1      CG2O1      OG2D1
    9    10    13	5 ;      NG2S1      CG2O1     CG3C51
   11    10    13	5 ;      OG2D1      CG2O1     CG3C51
   10    13    14	5 ;      CG2O1     CG3C51     CG2R51
   10    13    22	5 ;      CG2O1     CG3C51     CG3C52
   10    13    83	5 ;      CG2O1     CG3C51       HGA1
   14    13    22	5 ;     CG2R51     CG3C51     CG3C52
   14    13    83	5 ;     CG2R51     CG3C51       HGA1
   22    13    83	5 ;     CG3C52     CG3C51       HGA1
   15    14    13	5 ;     CG2DC1     CG2R51     CG3C51
   15    14    16	5 ;     CG2DC1     CG2R51     CG3RC1
   13    14    16	5 ;     CG3C51     CG2R51     CG3RC1
   17    15    14	5 ;     CG2DC2     CG2DC1     CG2R51
   17    15    55	5 ;     CG2DC2     CG2DC1       HGA4
   14    15    55	5 ;     CG2R51     CG2DC1       HGA4
   14    16    19	5 ;     CG2R51     CG3RC1      NG311
   14    16    21	5 ;     CG2R51     CG3RC1      NG2S0
   14    16    84	5 ;     CG2R51     CG3RC1       HGA1
   19    16    21	5 ;      NG311     CG3RC1      NG2S0
   19    16    84	5 ;      NG311     CG3RC1       HGA1
   21    16    84	5 ;      NG2S0     CG3RC1       HGA1
   15    17    18	5 ;     CG2DC1     CG2DC2     CG2D2O
   15    17    56	5 ;     CG2DC1     CG2DC2       HGA4
   18    17    56	5 ;     CG2D2O     CG2DC2       HGA4
   17    18    19	5 ;     CG2DC2     CG2D2O      NG311
   17    18    57	5 ;     CG2DC2     CG2D2O       HGA4
   19    18    57	5 ;      NG311     CG2D2O       HGA4
   18    19    16	5 ;     CG2D2O      NG311     CG3RC1
   18    19    20	5 ;     CG2D2O      NG311     HGPAM1
   16    19    20	5 ;     CG3RC1      NG311     HGPAM1
   22    21    16	5 ;     CG3C52      NG2S0     CG3RC1
   22    21    23	5 ;     CG3C52      NG2S0      CG2O6
   16    21    23	5 ;     CG3RC1      NG2S0      CG2O6
   13    22    21	5 ;     CG3C51     CG3C52      NG2S0
   13    22    58	5 ;     CG3C51     CG3C52       HGA2
   13    22    85	5 ;     CG3C51     CG3C52       HGA2
   21    22    58	5 ;      NG2S0     CG3C52       HGA2
   21    22    85	5 ;      NG2S0     CG3C52       HGA2
   58    22    85	5 ;       HGA2     CG3C52       HGA2
   21    23    24	5 ;      NG2S0      CG2O6      OG2D1
   21    23    25	5 ;      NG2S0      CG2O6      NG2S0
   24    23    25	5 ;      OG2D1      CG2O6      NG2S0
   23    25    26	5 ;      CG2O6      NG2S0      CG331
   23    25    27	5 ;      CG2O6      NG2S0      CG321
   26    25    27	5 ;      CG331      NG2S0      CG321
   25    26    59	5 ;      NG2S0      CG331       HGA3
   25    26    60	5 ;      NG2S0      CG331       HGA3
   25    26    61	5 ;      NG2S0      CG331       HGA3
   59    26    60	5 ;       HGA3      CG331       HGA3
   59    26    61	5 ;       HGA3      CG331       HGA3
   60    26    61	5 ;       HGA3      CG331       HGA3
   25    27    28	5 ;      NG2S0      CG321      CG321
   25    27    62	5 ;      NG2S0      CG321       HGA2
   25    27    63	5 ;      NG2S0      CG321       HGA2
   28    27    62	5 ;      CG321      CG321       HGA2
   28    27    63	5 ;      CG321      CG321       HGA2
   62    27    63	5 ;       HGA2      CG321       HGA2
   27    28    29	5 ;      CG321      CG321      CG321
   27    28    64	5 ;      CG321      CG321       HGA2
   27    28    65	5 ;      CG321      CG321       HGA2
   29    28    64	5 ;      CG321      CG321       HGA2
   29    28    65	5 ;      CG321      CG321       HGA2
   64    28    65	5 ;       HGA2      CG321       HGA2
   28    29    30	5 ;      CG321      CG321      CG331
   28    29    66	5 ;      CG321      CG321       HGA2
   28    29    67	5 ;      CG321      CG321       HGA2
   30    29    66	5 ;      CG331      CG321       HGA2
   30    29    67	5 ;      CG331      CG321       HGA2
   66    29    67	5 ;       HGA2      CG321       HGA2
   29    30    68	5 ;      CG321      CG331       HGA3
   29    30    69	5 ;      CG321      CG331       HGA3
   29    30    70	5 ;      CG321      CG331       HGA3
   68    30    69	5 ;       HGA3      CG331       HGA3
   68    30    70	5 ;       HGA3      CG331       HGA3
   69    30    70	5 ;       HGA3      CG331       HGA3
   32    31     1	5 ;      OG311      CG311      CG311
   32    31    34	5 ;      OG311      CG311      CG324
   32    31    71	5 ;      OG311      CG311       HGA1
    1    31    34	5 ;      CG311      CG311      CG324
    1    31    71	5 ;      CG311      CG311       HGA1
   34    31    71	5 ;      CG324      CG311       HGA1
   31    32    33	5 ;      CG311      OG311       HGP1
   31    34    35	5 ;      CG311      CG324      NG3P2
   31    34    72	5 ;      CG311      CG324       HGA2
   31    34    73	5 ;      CG311      CG324       HGA2
   35    34    72	5 ;      NG3P2      CG324       HGA2
   35    34    73	5 ;      NG3P2      CG324       HGA2
   72    34    73	5 ;       HGA2      CG324       HGA2
   37    35    34	5 ;       HGP2      NG3P2      CG324
   37    35    36	5 ;       HGP2      NG3P2       HGP2
   37    35    38	5 ;       HGP2      NG3P2      CG324
   34    35    36	5 ;      CG324      NG3P2       HGP2
   34    35    38	5 ;      CG324      NG3P2      CG324
   36    35    38	5 ;       HGP2      NG3P2      CG324
   35    38    39	5 ;      NG3P2      CG324     CG2R61
   35    38    74	5 ;      NG3P2      CG324       HGA2
   35    38    75	5 ;      NG3P2      CG324       HGA2
   39    38    74	5 ;     CG2R61      CG324       HGA2
   39    38    75	5 ;     CG2R61      CG324       HGA2
   74    38    75	5 ;       HGA2      CG324       HGA2
   44    39    38	5 ;     CG2R61     CG2R61      CG324
   44    39    40	5 ;     CG2R61     CG2R61     CG2R61
   38    39    40	5 ;      CG324     CG2R61     CG2R61
   39    40    41	5 ;     CG2R61     CG2R61     CG2R61
   39    40    76	5 ;     CG2R61     CG2R61      HGR61
   41    40    76	5 ;     CG2R61     CG2R61      HGR61
   42    41    40	5 ;     CG2R61     CG2R61     CG2R61
   42    41    77	5 ;     CG2R61     CG2R61      HGR61
   40    41    77	5 ;     CG2R61     CG2R61      HGR61
   43    42    41	5 ;     CG2R61     CG2R61     CG2R61
   43    42    78	5 ;     CG2R61     CG2R61      HGR61
   41    42    78	5 ;     CG2R61     CG2R61      HGR61
   44    43    42	5 ;     CG2R61     CG2R61     CG2R61
   44    43    79	5 ;     CG2R61     CG2R61      HGR61
   42    43    79	5 ;     CG2R61     CG2R61      HGR61
   45    44    43	5 ;      OG301     CG2R61     CG2R61
   45    44    39	5 ;      OG301     CG2R61     CG2R61
   43    44    39	5 ;     CG2R61     CG2R61     CG2R61
   46    45    44	5 ;      CG331      OG301     CG2R61
   45    46    80	5 ;      OG301      CG331       HGA3
   45    46    81	5 ;      OG301      CG331       HGA3
   45    46    82	5 ;      OG301      CG331       HGA3
   80    46    81	5 ;       HGA3      CG331       HGA3
   80    46    82	5 ;       HGA3      CG331       HGA3
   81    46    82	5 ;       HGA3      CG331       HGA3

[ dihedrals ]
;	ai	  aj	ak	  al funct			  c0			c1			  c2			c3			  c4			c5
   31     1     2     3	 9 ;      CG311      CG311      CG321     CG2R61
   31     1     2    48	 9 ;      CG311      CG311      CG321       HGA2
   31     1     2    49	 9 ;      CG311      CG311      CG321       HGA2
    9     1     2     3	 9 ;      NG2S1      CG311      CG321     CG2R61
    9     1     2    48	 9 ;      NG2S1      CG311      CG321       HGA2
    9     1     2    49	 9 ;      NG2S1      CG311      CG321       HGA2
   47     1     2     3	 9 ;       HGA1      CG311      CG321     CG2R61
   47     1     2    48	 9 ;       HGA1      CG311      CG321       HGA2
   47     1     2    49	 9 ;       HGA1      CG311      CG321       HGA2
    2     1    31    32	 9 ;      CG321      CG311      CG311      OG311
    2     1    31    34	 9 ;      CG321      CG311      CG311      CG324
    2     1    31    71	 9 ;      CG321      CG311      CG311       HGA1
    9     1    31    32	 9 ;      NG2S1      CG311      CG311      OG311
    9     1    31    34	 9 ;      NG2S1      CG311      CG311      CG324
    9     1    31    71	 9 ;      NG2S1      CG311      CG311       HGA1
   47     1    31    32	 9 ;       HGA1      CG311      CG311      OG311
   47     1    31    34	 9 ;       HGA1      CG311      CG311      CG324
   47     1    31    71	 9 ;       HGA1      CG311      CG311       HGA1
    2     1     9    12	 9 ;      CG321      CG311      NG2S1       HGP1
    2     1     9    10	 9 ;      CG321      CG311      NG2S1      CG2O1
   31     1     9    12	 9 ;      CG311      CG311      NG2S1       HGP1
   31     1     9    10	 9 ;      CG311      CG311      NG2S1      CG2O1
   47     1     9    12	 9 ;       HGA1      CG311      NG2S1       HGP1
   47     1     9    10	 9 ;       HGA1      CG311      NG2S1      CG2O1
    1     2     3     4	 9 ;      CG311      CG321     CG2R61     CG2R61
    1     2     3     8	 9 ;      CG311      CG321     CG2R61     CG2R61
   48     2     3     4	 9 ;       HGA2      CG321     CG2R61     CG2R61
   48     2     3     8	 9 ;       HGA2      CG321     CG2R61     CG2R61
   49     2     3     4	 9 ;       HGA2      CG321     CG2R61     CG2R61
   49     2     3     8	 9 ;       HGA2      CG321     CG2R61     CG2R61
    2     3     4     5	 9 ;      CG321     CG2R61     CG2R61     CG2R61
    2     3     4    50	 9 ;      CG321     CG2R61     CG2R61      HGR61
    8     3     4     5	 9 ;     CG2R61     CG2R61     CG2R61     CG2R61
    8     3     4    50	 9 ;     CG2R61     CG2R61     CG2R61      HGR61
    2     3     8     7	 9 ;      CG321     CG2R61     CG2R61     CG2R61
    2     3     8    54	 9 ;      CG321     CG2R61     CG2R61      HGR61
    4     3     8     7	 9 ;     CG2R61     CG2R61     CG2R61     CG2R61
    4     3     8    54	 9 ;     CG2R61     CG2R61     CG2R61      HGR61
    3     4     5     6	 9 ;     CG2R61     CG2R61     CG2R61     CG2R61
    3     4     5    51	 9 ;     CG2R61     CG2R61     CG2R61      HGR61
   50     4     5     6	 9 ;      HGR61     CG2R61     CG2R61     CG2R61
   50     4     5    51	 9 ;      HGR61     CG2R61     CG2R61      HGR61
    4     5     6     7	 9 ;     CG2R61     CG2R61     CG2R61     CG2R61
    4     5     6    52	 9 ;     CG2R61     CG2R61     CG2R61      HGR61
   51     5     6     7	 9 ;      HGR61     CG2R61     CG2R61     CG2R61
   51     5     6    52	 9 ;      HGR61     CG2R61     CG2R61      HGR61
    5     6     7     8	 9 ;     CG2R61     CG2R61     CG2R61     CG2R61
    5     6     7    53	 9 ;     CG2R61     CG2R61     CG2R61      HGR61
   52     6     7     8	 9 ;      HGR61     CG2R61     CG2R61     CG2R61
   52     6     7    53	 9 ;      HGR61     CG2R61     CG2R61      HGR61
    6     7     8     3	 9 ;     CG2R61     CG2R61     CG2R61     CG2R61
    6     7     8    54	 9 ;     CG2R61     CG2R61     CG2R61      HGR61
   53     7     8     3	 9 ;      HGR61     CG2R61     CG2R61     CG2R61
   53     7     8    54	 9 ;      HGR61     CG2R61     CG2R61      HGR61
   12     9    10    11	 9 ;       HGP1      NG2S1      CG2O1      OG2D1
   12     9    10    13	 9 ;       HGP1      NG2S1      CG2O1     CG3C51
    1     9    10    11	 9 ;      CG311      NG2S1      CG2O1      OG2D1
    1     9    10    13	 9 ;      CG311      NG2S1      CG2O1     CG3C51
    9    10    13    14	 9 ;      NG2S1      CG2O1     CG3C51     CG2R51
    9    10    13    22	 9 ;      NG2S1      CG2O1     CG3C51     CG3C52
    9    10    13    83	 9 ;      NG2S1      CG2O1     CG3C51       HGA1
   11    10    13    14	 9 ;      OG2D1      CG2O1     CG3C51     CG2R51
   11    10    13    22	 9 ;      OG2D1      CG2O1     CG3C51     CG3C52
   11    10    13    83	 9 ;      OG2D1      CG2O1     CG3C51       HGA1
   10    13    14    15	 9 ;      CG2O1     CG3C51     CG2R51     CG2DC1
   10    13    14    16	 9 ;      CG2O1     CG3C51     CG2R51     CG3RC1
   22    13    14    15	 9 ;     CG3C52     CG3C51     CG2R51     CG2DC1
   22    13    14    16	 9 ;     CG3C52     CG3C51     CG2R51     CG3RC1
   83    13    14    15	 9 ;       HGA1     CG3C51     CG2R51     CG2DC1
   83    13    14    16	 9 ;       HGA1     CG3C51     CG2R51     CG3RC1
   10    13    22    21	 9 ;      CG2O1     CG3C51     CG3C52      NG2S0
   10    13    22    58	 9 ;      CG2O1     CG3C51     CG3C52       HGA2
   10    13    22    85	 9 ;      CG2O1     CG3C51     CG3C52       HGA2
   14    13    22    21	 9 ;     CG2R51     CG3C51     CG3C52      NG2S0
   14    13    22    58	 9 ;     CG2R51     CG3C51     CG3C52       HGA2
   14    13    22    85	 9 ;     CG2R51     CG3C51     CG3C52       HGA2
   83    13    22    21	 9 ;       HGA1     CG3C51     CG3C52      NG2S0
   83    13    22    58	 9 ;       HGA1     CG3C51     CG3C52       HGA2
   83    13    22    85	 9 ;       HGA1     CG3C51     CG3C52       HGA2
   13    14    15    17	 9 ;     CG3C51     CG2R51     CG2DC1     CG2DC2
   13    14    15    55	 9 ;     CG3C51     CG2R51     CG2DC1       HGA4
   16    14    15    17	 9 ;     CG3RC1     CG2R51     CG2DC1     CG2DC2
   16    14    15    55	 9 ;     CG3RC1     CG2R51     CG2DC1       HGA4
   15    14    16    19	 9 ;     CG2DC1     CG2R51     CG3RC1      NG311
   15    14    16    21	 9 ;     CG2DC1     CG2R51     CG3RC1      NG2S0
   15    14    16    84	 9 ;     CG2DC1     CG2R51     CG3RC1       HGA1
   13    14    16    19	 9 ;     CG3C51     CG2R51     CG3RC1      NG311
   13    14    16    21	 9 ;     CG3C51     CG2R51     CG3RC1      NG2S0
   13    14    16    84	 9 ;     CG3C51     CG2R51     CG3RC1       HGA1
   14    15    17    18	 9 ;     CG2R51     CG2DC1     CG2DC2     CG2D2O
   14    15    17    56	 9 ;     CG2R51     CG2DC1     CG2DC2       HGA4
   55    15    17    18	 9 ;       HGA4     CG2DC1     CG2DC2     CG2D2O
   55    15    17    56	 9 ;       HGA4     CG2DC1     CG2DC2       HGA4
   14    16    19    18	 9 ;     CG2R51     CG3RC1      NG311     CG2D2O
   14    16    19    20	 9 ;     CG2R51     CG3RC1      NG311     HGPAM1
   21    16    19    18	 9 ;      NG2S0     CG3RC1      NG311     CG2D2O
   21    16    19    20	 9 ;      NG2S0     CG3RC1      NG311     HGPAM1
   84    16    19    18	 9 ;       HGA1     CG3RC1      NG311     CG2D2O
   84    16    19    20	 9 ;       HGA1     CG3RC1      NG311     HGPAM1
   14    16    21    22	 9 ;     CG2R51     CG3RC1      NG2S0     CG3C52
   14    16    21    23	 9 ;     CG2R51     CG3RC1      NG2S0      CG2O6
   19    16    21    22	 9 ;      NG311     CG3RC1      NG2S0     CG3C52
   19    16    21    23	 9 ;      NG311     CG3RC1      NG2S0      CG2O6
   84    16    21    22	 9 ;       HGA1     CG3RC1      NG2S0     CG3C52
   84    16    21    23	 9 ;       HGA1     CG3RC1      NG2S0      CG2O6
   15    17    18    19	 9 ;     CG2DC1     CG2DC2     CG2D2O      NG311
   15    17    18    57	 9 ;     CG2DC1     CG2DC2     CG2D2O       HGA4
   56    17    18    19	 9 ;       HGA4     CG2DC2     CG2D2O      NG311
   56    17    18    57	 9 ;       HGA4     CG2DC2     CG2D2O       HGA4
   17    18    19    16	 9 ;     CG2DC2     CG2D2O      NG311     CG3RC1
   17    18    19    20	 9 ;     CG2DC2     CG2D2O      NG311     HGPAM1
   57    18    19    16	 9 ;       HGA4     CG2D2O      NG311     CG3RC1
   57    18    19    20	 9 ;       HGA4     CG2D2O      NG311     HGPAM1
   16    21    22    13	 9 ;     CG3RC1      NG2S0     CG3C52     CG3C51
   16    21    22    58	 9 ;     CG3RC1      NG2S0     CG3C52       HGA2
   16    21    22    85	 9 ;     CG3RC1      NG2S0     CG3C52       HGA2
   23    21    22    13	 9 ;      CG2O6      NG2S0     CG3C52     CG3C51
   23    21    22    58	 9 ;      CG2O6      NG2S0     CG3C52       HGA2
   23    21    22    85	 9 ;      CG2O6      NG2S0     CG3C52       HGA2
   22    21    23    24	 9 ;     CG3C52      NG2S0      CG2O6      OG2D1
   22    21    23    25	 9 ;     CG3C52      NG2S0      CG2O6      NG2S0
   16    21    23    24	 9 ;     CG3RC1      NG2S0      CG2O6      OG2D1
   16    21    23    25	 9 ;     CG3RC1      NG2S0      CG2O6      NG2S0
   21    23    25    26	 9 ;      NG2S0      CG2O6      NG2S0      CG331
   21    23    25    27	 9 ;      NG2S0      CG2O6      NG2S0      CG321
   24    23    25    26	 9 ;      OG2D1      CG2O6      NG2S0      CG331
   24    23    25    27	 9 ;      OG2D1      CG2O6      NG2S0      CG321
   23    25    26    59	 9 ;      CG2O6      NG2S0      CG331       HGA3
   23    25    26    60	 9 ;      CG2O6      NG2S0      CG331       HGA3
   23    25    26    61	 9 ;      CG2O6      NG2S0      CG331       HGA3
   27    25    26    59	 9 ;      CG321      NG2S0      CG331       HGA3
   27    25    26    60	 9 ;      CG321      NG2S0      CG331       HGA3
   27    25    26    61	 9 ;      CG321      NG2S0      CG331       HGA3
   23    25    27    28	 9 ;      CG2O6      NG2S0      CG321      CG321
   23    25    27    62	 9 ;      CG2O6      NG2S0      CG321       HGA2
   23    25    27    63	 9 ;      CG2O6      NG2S0      CG321       HGA2
   26    25    27    28	 9 ;      CG331      NG2S0      CG321      CG321
   26    25    27    62	 9 ;      CG331      NG2S0      CG321       HGA2
   26    25    27    63	 9 ;      CG331      NG2S0      CG321       HGA2
   25    27    28    29	 9 ;      NG2S0      CG321      CG321      CG321
   25    27    28    64	 9 ;      NG2S0      CG321      CG321       HGA2
   25    27    28    65	 9 ;      NG2S0      CG321      CG321       HGA2
   62    27    28    29	 9 ;       HGA2      CG321      CG321      CG321
   62    27    28    64	 9 ;       HGA2      CG321      CG321       HGA2
   62    27    28    65	 9 ;       HGA2      CG321      CG321       HGA2
   63    27    28    29	 9 ;       HGA2      CG321      CG321      CG321
   63    27    28    64	 9 ;       HGA2      CG321      CG321       HGA2
   63    27    28    65	 9 ;       HGA2      CG321      CG321       HGA2
   27    28    29    30	 9 ;      CG321      CG321      CG321      CG331
   27    28    29    66	 9 ;      CG321      CG321      CG321       HGA2
   27    28    29    67	 9 ;      CG321      CG321      CG321       HGA2
   64    28    29    30	 9 ;       HGA2      CG321      CG321      CG331
   64    28    29    66	 9 ;       HGA2      CG321      CG321       HGA2
   64    28    29    67	 9 ;       HGA2      CG321      CG321       HGA2
   65    28    29    30	 9 ;       HGA2      CG321      CG321      CG331
   65    28    29    66	 9 ;       HGA2      CG321      CG321       HGA2
   65    28    29    67	 9 ;       HGA2      CG321      CG321       HGA2
   28    29    30    68	 9 ;      CG321      CG321      CG331       HGA3
   28    29    30    69	 9 ;      CG321      CG321      CG331       HGA3
   28    29    30    70	 9 ;      CG321      CG321      CG331       HGA3
   66    29    30    68	 9 ;       HGA2      CG321      CG331       HGA3
   66    29    30    69	 9 ;       HGA2      CG321      CG331       HGA3
   66    29    30    70	 9 ;       HGA2      CG321      CG331       HGA3
   67    29    30    68	 9 ;       HGA2      CG321      CG331       HGA3
   67    29    30    69	 9 ;       HGA2      CG321      CG331       HGA3
   67    29    30    70	 9 ;       HGA2      CG321      CG331       HGA3
    1    31    32    33	 9 ;      CG311      CG311      OG311       HGP1
   34    31    32    33	 9 ;      CG324      CG311      OG311       HGP1
   71    31    32    33	 9 ;       HGA1      CG311      OG311       HGP1
   32    31    34    35	 9 ;      OG311      CG311      CG324      NG3P2
   32    31    34    72	 9 ;      OG311      CG311      CG324       HGA2
   32    31    34    73	 9 ;      OG311      CG311      CG324       HGA2
    1    31    34    35	 9 ;      CG311      CG311      CG324      NG3P2
    1    31    34    72	 9 ;      CG311      CG311      CG324       HGA2
    1    31    34    73	 9 ;      CG311      CG311      CG324       HGA2
   71    31    34    35	 9 ;       HGA1      CG311      CG324      NG3P2
   71    31    34    72	 9 ;       HGA1      CG311      CG324       HGA2
   71    31    34    73	 9 ;       HGA1      CG311      CG324       HGA2
   31    34    35    37	 9 ;      CG311      CG324      NG3P2       HGP2
   31    34    35    36	 9 ;      CG311      CG324      NG3P2       HGP2
   31    34    35    38	 9 ;      CG311      CG324      NG3P2      CG324
   72    34    35    37	 9 ;       HGA2      CG324      NG3P2       HGP2
   72    34    35    36	 9 ;       HGA2      CG324      NG3P2       HGP2
   72    34    35    38	 9 ;       HGA2      CG324      NG3P2      CG324
   73    34    35    37	 9 ;       HGA2      CG324      NG3P2       HGP2
   73    34    35    36	 9 ;       HGA2      CG324      NG3P2       HGP2
   73    34    35    38	 9 ;       HGA2      CG324      NG3P2      CG324
   37    35    38    39	 9 ;       HGP2      NG3P2      CG324     CG2R61
   37    35    38    74	 9 ;       HGP2      NG3P2      CG324       HGA2
   37    35    38    75	 9 ;       HGP2      NG3P2      CG324       HGA2
   34    35    38    39	 9 ;      CG324      NG3P2      CG324     CG2R61
   34    35    38    74	 9 ;      CG324      NG3P2      CG324       HGA2
   34    35    38    75	 9 ;      CG324      NG3P2      CG324       HGA2
   36    35    38    39	 9 ;       HGP2      NG3P2      CG324     CG2R61
   36    35    38    74	 9 ;       HGP2      NG3P2      CG324       HGA2
   36    35    38    75	 9 ;       HGP2      NG3P2      CG324       HGA2
   35    38    39    44	 9 ;      NG3P2      CG324     CG2R61     CG2R61
   35    38    39    40	 9 ;      NG3P2      CG324     CG2R61     CG2R61
   74    38    39    44	 9 ;       HGA2      CG324     CG2R61     CG2R61
   74    38    39    40	 9 ;       HGA2      CG324     CG2R61     CG2R61
   75    38    39    44	 9 ;       HGA2      CG324     CG2R61     CG2R61
   75    38    39    40	 9 ;       HGA2      CG324     CG2R61     CG2R61
   38    39    44    45	 9 ;      CG324     CG2R61     CG2R61      OG301
   38    39    44    43	 9 ;      CG324     CG2R61     CG2R61     CG2R61
   40    39    44    45	 9 ;     CG2R61     CG2R61     CG2R61      OG301
   40    39    44    43	 9 ;     CG2R61     CG2R61     CG2R61     CG2R61
   44    39    40    41	 9 ;     CG2R61     CG2R61     CG2R61     CG2R61
   44    39    40    76	 9 ;     CG2R61     CG2R61     CG2R61      HGR61
   38    39    40    41	 9 ;      CG324     CG2R61     CG2R61     CG2R61
   38    39    40    76	 9 ;      CG324     CG2R61     CG2R61      HGR61
   39    40    41    42	 9 ;     CG2R61     CG2R61     CG2R61     CG2R61
   39    40    41    77	 9 ;     CG2R61     CG2R61     CG2R61      HGR61
   76    40    41    42	 9 ;      HGR61     CG2R61     CG2R61     CG2R61
   76    40    41    77	 9 ;      HGR61     CG2R61     CG2R61      HGR61
   40    41    42    43	 9 ;     CG2R61     CG2R61     CG2R61     CG2R61
   40    41    42    78	 9 ;     CG2R61     CG2R61     CG2R61      HGR61
   77    41    42    43	 9 ;      HGR61     CG2R61     CG2R61     CG2R61
   77    41    42    78	 9 ;      HGR61     CG2R61     CG2R61      HGR61
   41    42    43    44	 9 ;     CG2R61     CG2R61     CG2R61     CG2R61
   41    42    43    79	 9 ;     CG2R61     CG2R61     CG2R61      HGR61
   78    42    43    44	 9 ;      HGR61     CG2R61     CG2R61     CG2R61
   78    42    43    79	 9 ;      HGR61     CG2R61     CG2R61      HGR61
   42    43    44    45	 9 ;     CG2R61     CG2R61     CG2R61      OG301
   42    43    44    39	 9 ;     CG2R61     CG2R61     CG2R61     CG2R61
   79    43    44    45	 9 ;      HGR61     CG2R61     CG2R61      OG301
   79    43    44    39	 9 ;      HGR61     CG2R61     CG2R61     CG2R61
   43    44    45    46	 9 ;     CG2R61     CG2R61      OG301      CG331
   39    44    45    46	 9 ;     CG2R61     CG2R61      OG301      CG331
   44    45    46    80	 9 ;     CG2R61      OG301      CG331       HGA3
   44    45    46    81	 9 ;     CG2R61      OG301      CG331       HGA3
   44    45    46    82	 9 ;     CG2R61      OG301      CG331       HGA3

[ dihedrals ]
;	ai	  aj	ak	  al funct			  c0			c1			  c2			c3
   10    13     9    11	 2
   18    17    19    57	 2
   23    21    25    24	 2

