Gromacs Runs One Microsecond At Cannonball Speeds
   54
    1LIG     C1    1  -1.786   0.544  -1.562
    1LIG     C2    2  -1.911   0.579  -1.640
    1LIG     C3    3  -1.924   0.535  -1.497
    1LIG     C4    4  -1.701   0.430  -1.610
    1LIG     C5    5  -1.579   0.400  -1.547
    1LIG     C6    6  -1.495   0.293  -1.586
    1LIG     C7    7  -1.535   0.217  -1.696
    1LIG     C8    8  -1.651   0.249  -1.767
    1LIG     C9    9  -1.732   0.354  -1.724
    1LIG    C10   10  -1.370   0.265  -1.511
    1LIG    C11   11  -1.285   0.160  -1.552
    1LIG    C12   12  -1.173   0.124  -1.478
    1LIG    C13   13  -1.140   0.197  -1.365
    1LIG    C14   14  -1.219   0.304  -1.324
    1LIG    C15   15  -1.334   0.337  -1.396
    1LIG     O1   16  -1.089   0.020  -1.507
    1LIG    C16   17  -1.036  -0.053  -1.397
    1LIG    C17   18  -2.007   0.412  -1.458
    1LIG     N1   19  -2.119   0.446  -1.373
    1LIG    C18   20  -2.237   0.396  -1.387
    1LIG     HN   21  -2.103   0.513  -1.297
    1LIG     N2   22  -2.272   0.311  -1.489
    1LIG    C19   23  -2.407   0.256  -1.497
    1LIG    C20   24  -2.187   0.285  -1.594
    1LIG     O2   25  -2.221   0.223  -1.695
    1LIG    C21   26  -2.047   0.338  -1.586
    1LIG    C22   27  -1.917   0.317  -1.374
    1LIG     N3   28  -2.329   0.432  -1.294
    1LIG     H1   29  -2.368   0.526  -1.295
    1LIG     H2   30  -2.395   0.359  -1.274
    1LIG     HC   31  -1.729   0.631  -1.531
    1LIG    HC2   32  -1.931   0.682  -1.668
    1LIG    HC3   33  -1.941   0.505  -1.715
    1LIG    HC1   34  -1.944   0.619  -1.430
    1LIG    HC4   35  -1.548   0.462  -1.464
    1LIG    HC5   36  -1.475   0.133  -1.727
    1LIG    HC6   37  -1.678   0.191  -1.854
    1LIG    HC7   38  -1.821   0.378  -1.781
    1LIG    HC8   39  -1.308   0.106  -1.643
    1LIG    HC9   40  -1.052   0.171  -1.307
    1LIG   HC10   41  -1.192   0.361  -1.237
    1LIG   HC11   42  -1.396   0.419  -1.362
    1LIG   HC12   43  -1.000  -0.150  -1.431
    1LIG   HC13   44  -1.114  -0.067  -1.322
    1LIG   HC14   45  -0.954   0.003  -1.353
    1LIG   HC15   46  -2.414   0.191  -1.584
    1LIG   HC16   47  -2.478   0.338  -1.508
    1LIG   HC17   48  -2.429   0.200  -1.407
    1LIG   HC18   49  -1.979   0.254  -1.599
    1LIG   HC19   50  -2.033   0.406  -1.670
    1LIG   HC20   51  -1.974   0.229  -1.346
    1LIG   HC21   52  -1.883   0.370  -1.285
    1LIG   HC22   53  -1.830   0.288  -1.433
    1LIG    H27   54  -2.265   0.482  -1.449
   0.00000   0.00000   0.00000
