Gromacs Runs On Most of All Computer Systems
   58
    1LIG     O1    1  -1.515   0.411  -1.783
    1LIG     C1    2  -1.564   0.498  -1.713
    1LIG     N1    3  -1.653   0.594  -1.752
    1LIG     C2    4  -1.719   0.592  -1.880
    1LIG     C3    5  -1.686   0.670  -1.646
    1LIG     N2    6  -1.633   0.636  -1.532
    1LIG     HN    7  -1.644   0.684  -1.443
    1LIG     C4    8  -1.552   0.513  -1.560
    1LIG     C5    9  -1.627   0.390  -1.495
    1LIG     C6   10  -1.725   0.322  -1.594
    1LIG     C7   11  -1.798   0.203  -1.533
    1LIG     C8   12  -1.874   0.245  -1.408
    1LIG     C9   13  -1.779   0.309  -1.307
    1LIG    C10   14  -1.702   0.428  -1.365
    1LIG    C11   15  -1.405   0.528  -1.518
    1LIG    C12   16  -1.327   0.417  -1.478
    1LIG    C13   17  -1.196   0.431  -1.431
    1LIG    C14   18  -1.142   0.560  -1.421
    1LIG    C15   19  -1.215   0.671  -1.464
    1LIG    C16   20  -1.344   0.655  -1.515
    1LIG     N3   21  -1.110   0.322  -1.401
    1LIG    C17   22  -1.037   0.246  -1.490
    1LIG     O2   23  -1.053   0.242  -1.612
    1LIG     H1   24  -1.099   0.302  -1.302
    1LIG    C18   25  -0.923   0.168  -1.426
    1LIG    C19   26  -0.925   0.017  -1.448
    1LIG    C20   27  -1.015  -0.057  -1.351
    1LIG     N4   28  -1.771   0.774  -1.655
    1LIG     H2   29  -1.866   0.747  -1.632
    1LIG     H3   30  -1.741   0.860  -1.609
    1LIG    HC1   31  -1.669   0.521  -1.946
    1LIG    HC2   32  -1.715   0.691  -1.925
    1LIG    HC3   33  -1.823   0.562  -1.867
    1LIG     HC   34  -1.601   0.736  -1.666
    1LIG    HN2   35  -1.552   0.693  -1.553
    1LIG    HC4   36  -1.551   0.316  -1.468
    1LIG    HC5   37  -1.669   0.287  -1.681
    1LIG    HC6   38  -1.799   0.395  -1.627
    1LIG    HC7   39  -1.868   0.162  -1.605
    1LIG    HC8   40  -1.725   0.126  -1.506
    1LIG    HC9   41  -1.921   0.158  -1.363
    1LIG   HC10   42  -1.951   0.317  -1.436
    1LIG   HC11   43  -1.838   0.345  -1.222
    1LIG   HC12   44  -1.708   0.234  -1.272
    1LIG   HC13   45  -1.630   0.462  -1.292
    1LIG   HC14   46  -1.772   0.508  -1.387
    1LIG   HC15   47  -1.370   0.319  -1.483
    1LIG   HC16   48  -1.043   0.574  -1.379
    1LIG   HC17   49  -1.171   0.770  -1.458
    1LIG   HC18   50  -1.398   0.741  -1.552
    1LIG   HC19   51  -0.830   0.206  -1.468
    1LIG   HC20   52  -0.924   0.187  -1.319
    1LIG   HC21   53  -0.823  -0.021  -1.435
    1LIG   HC22   54  -0.957  -0.004  -1.549
    1LIG   HC23   55  -1.011  -0.164  -1.372
    1LIG   HC24   56  -1.118  -0.022  -1.362
    1LIG   HC25   57  -0.982  -0.039  -1.248
    1LIG    HN1   58  -1.773   0.797  -1.754
   0.00000   0.00000   0.00000
