; Created by cgenff_charmm2gmx.py

[ moleculetype ]
; Name			   nrexcl
LIG				 3

[ atoms ]
;	 nr		  type	resnr residue  atom   cgnr	   charge		mass  typeB    chargeB		massB
; residue	 1 LIG rtp LIG q	qsum
     1      CG2O1      1    LIG     C1      1      0.282     12.011   ;
     2      OG2D1      1    LIG     O1      2     -0.463     15.999   ;
     3      NG2S1      1    LIG     N1      3     -0.226     14.007   ;
     4       HGP1      1    LIG     H1      4      0.262      1.008   ;
     5      CG311      1    LIG     C2      5      0.010     12.011   ;
     6      CG321      1    LIG     C3      6     -0.111     12.011   ;
     7     CG2R61      1    LIG     C4      7     -0.019     12.011   ;
     8     CG2R61      1    LIG     C5      8     -0.123     12.011   ;
     9     CG2R61      1    LIG     C6      9     -0.112     12.011   ;
    10     CG2R61      1    LIG     C7     10     -0.116     12.011   ;
    11     CG2R61      1    LIG     C8     11     -0.112     12.011   ;
    12     CG2R61      1    LIG     C9     12     -0.123     12.011   ;
    13      CG311      1    LIG    C10     13      0.093     12.011   ;
    14      CG324      1    LIG    C11     14      0.183     12.011   ;
    15      NG3P2      1    LIG     N2     15     -0.409     14.007   ;
    16       HGP2      1    LIG     H2     16      0.335      1.008   ;
    17       HGP2      1    LIG     H3     17      0.335      1.008   ;
    18     CG3C31      1    LIG    C12     18      0.283     12.011   ;
    19     CG3C31      1    LIG    C13     19     -0.179     12.011   ;
    20     CG3C31      1    LIG    C14     20     -0.179     12.011   ;
    21      OG311      1    LIG     O2     21     -0.625     15.999   ;
    22       HGP1      1    LIG     H4     22      0.415      1.008   ;
    23     CG2R61      1    LIG    C15     23     -0.156     12.011   ;
    24     CG2R61      1    LIG    C16     24     -0.127     12.011   ;
    25     CG2R61      1    LIG    C17     25      0.215     12.011   ;
    26      OG303      1    LIG     O3     26     -0.221     15.999   ;
    27     CG2RC0      1    LIG    C18     27      0.143     12.011   ;
    28      SG3O2      1    LIG      S     28      0.258     32.060   ;
    29      OG2P1      1    LIG     O4     29     -0.281     15.999   ;
    30      OG2P1      1    LIG     O5     30     -0.281     15.999   ;
    31      CG321      1    LIG    C19     31      0.014     12.011   ;
    32      CG321      1    LIG    C20     32     -0.091     12.011   ;
    33     NG2R51      1    LIG     N3     33      0.000     14.007   ;
    34     CG2R51      1    LIG    C21     34     -0.194     12.011   ;
    35     CG2R51      1    LIG    C22     35     -0.060     12.011   ;
    36     CG2RC0      1    LIG    C23     36      0.153     12.011   ;
    37     CG2R61      1    LIG    C24     37     -0.202     12.011   ;
    38      CG321      1    LIG    C25     38     -0.169     12.011   ;
    39      CG331      1    LIG    C26     39     -0.267     12.011   ;
    40       HGA1      1    LIG     HC     40      0.090      1.008   ;
    41       HGA2      1    LIG    HC2     41      0.090      1.008   ;
    42       HGA2      1    LIG    HC3     42      0.090      1.008   ;
    43      HGR61      1    LIG    HC1     43      0.116      1.008   ;
    44      HGR61      1    LIG    HC4     44      0.116      1.008   ;
    45      HGR61      1    LIG    HC5     45      0.116      1.008   ;
    46      HGR61      1    LIG    HC6     46      0.116      1.008   ;
    47      HGR61      1    LIG    HC7     47      0.116      1.008   ;
    48       HGA1      1    LIG    HC8     48      0.090      1.008   ;
    49       HGA2      1    LIG    HC9     49      0.090      1.008   ;
    50       HGA2      1    LIG   HC10     50      0.090      1.008   ;
    51       HGA1      1    LIG   HC11     51      0.090      1.008   ;
    52       HGA2      1    LIG   HC12     52      0.090      1.008   ;
    53       HGA2      1    LIG   HC13     53      0.090      1.008   ;
    54       HGA2      1    LIG   HC14     54      0.090      1.008   ;
    55       HGA2      1    LIG   HC15     55      0.090      1.008   ;
    56      HGR61      1    LIG   HC16     56      0.134      1.008   ;
    57       HGA2      1    LIG   HC17     57      0.090      1.008   ;
    58       HGA2      1    LIG   HC18     58      0.090      1.008   ;
    59       HGA2      1    LIG   HC19     59      0.090      1.008   ;
    60       HGA2      1    LIG   HC20     60      0.090      1.008   ;
    61      HGR52      1    LIG   HC21     61      0.154      1.008   ;
    62      HGR61      1    LIG   HC22     62      0.197      1.008   ;
    63       HGA2      1    LIG   HC23     63      0.090      1.008   ;
    64       HGA2      1    LIG   HC24     64      0.090      1.008   ;
    65       HGA3      1    LIG   HC25     65      0.090      1.008   ;
    66       HGA3      1    LIG   HC26     66      0.090      1.008   ;
    67       HGA3      1    LIG   HC27     67      0.090      1.008   ;

[ bonds ]
;	ai	  aj funct			  c0			c1			  c2			c3
    1    23	 1 ;       CG2O1     CG2R61
    1     3	 1 ;       CG2O1      NG2S1
    1     2	 1 ;       CG2O1      OG2D1
    3     4	 1 ;       NG2S1       HGP1
    3     5	 1 ;       NG2S1      CG311
    5     6	 1 ;       CG311      CG321
    5    13	 1 ;       CG311      CG311
    5    40	 1 ;       CG311       HGA1
    6     7	 1 ;       CG321     CG2R61
    6    41	 1 ;       CG321       HGA2
    6    42	 1 ;       CG321       HGA2
    7     8	 1 ;      CG2R61     CG2R61
    7    12	 1 ;      CG2R61     CG2R61
    8     9	 1 ;      CG2R61     CG2R61
    8    43	 1 ;      CG2R61      HGR61
    9    10	 1 ;      CG2R61     CG2R61
    9    44	 1 ;      CG2R61      HGR61
   10    11	 1 ;      CG2R61     CG2R61
   10    45	 1 ;      CG2R61      HGR61
   11    12	 1 ;      CG2R61     CG2R61
   11    46	 1 ;      CG2R61      HGR61
   12    47	 1 ;      CG2R61      HGR61
   13    14	 1 ;       CG311      CG324
   13    21	 1 ;       CG311      OG311
   13    48	 1 ;       CG311       HGA1
   14    15	 1 ;       CG324      NG3P2
   14    49	 1 ;       CG324       HGA2
   14    50	 1 ;       CG324       HGA2
   15    18	 1 ;       NG3P2     CG3C31
   15    16	 1 ;       NG3P2       HGP2
   15    17	 1 ;       NG3P2       HGP2
   18    20	 1 ;      CG3C31     CG3C31
   18    19	 1 ;      CG3C31     CG3C31
   18    51	 1 ;      CG3C31       HGA1
   19    20	 1 ;      CG3C31     CG3C31
   19    52	 1 ;      CG3C31       HGA2
   19    53	 1 ;      CG3C31       HGA2
   20    54	 1 ;      CG3C31       HGA2
   20    55	 1 ;      CG3C31       HGA2
   21    22	 1 ;       OG311       HGP1
   23    37	 1 ;      CG2R61     CG2R61
   23    24	 1 ;      CG2R61     CG2R61
   24    25	 1 ;      CG2R61     CG2R61
   24    56	 1 ;      CG2R61      HGR61
   25    27	 1 ;      CG2R61     CG2RC0
   25    26	 1 ;      CG2R61      OG303
   26    28	 1 ;       OG303      SG3O2
   27    33	 1 ;      CG2RC0     NG2R51
   27    36	 1 ;      CG2RC0     CG2RC0
   28    31	 1 ;       SG3O2      CG321
   28    29	 1 ;       SG3O2      OG2P1
   28    30	 1 ;       SG3O2      OG2P1
   31    32	 1 ;       CG321      CG321
   31    57	 1 ;       CG321       HGA2
   31    58	 1 ;       CG321       HGA2
   32    33	 1 ;       CG321     NG2R51
   32    59	 1 ;       CG321       HGA2
   32    60	 1 ;       CG321       HGA2
   33    34	 1 ;      NG2R51     CG2R51
   34    35	 1 ;      CG2R51     CG2R51
   34    61	 1 ;      CG2R51      HGR52
   35    38	 1 ;      CG2R51      CG321
   35    36	 1 ;      CG2R51     CG2RC0
   36    37	 1 ;      CG2RC0     CG2R61
   37    62	 1 ;      CG2R61      HGR61
   38    39	 1 ;       CG321      CG331
   38    63	 1 ;       CG321       HGA2
   38    64	 1 ;       CG321       HGA2
   39    65	 1 ;       CG331       HGA3
   39    66	 1 ;       CG331       HGA3
   39    67	 1 ;       CG331       HGA3

[ pairs ]
;	ai	  aj funct			  c0			c1			  c2			c3
    1     6	 1
    1    13	 1
    1    40	 1
    1    36	 1
    1    62	 1
    1    25	 1
    1    56	 1
    2    37	 1
    2    24	 1
    2     4	 1
    2     5	 1
    3    37	 1
    3    24	 1
    3     7	 1
    3    41	 1
    3    42	 1
    3    14	 1
    3    21	 1
    3    48	 1
    4    23	 1
    4     6	 1
    4    13	 1
    4    40	 1
    5    23	 1
    5     8	 1
    5    12	 1
    5    15	 1
    5    49	 1
    5    50	 1
    5    22	 1
    6    14	 1
    6    21	 1
    6    48	 1
    6     9	 1
    6    43	 1
    6    11	 1
    6    47	 1
    7    13	 1
    7    40	 1
    7    10	 1
    7    44	 1
    7    46	 1
    8    41	 1
    8    42	 1
    8    11	 1
    8    47	 1
    8    45	 1
    9    12	 1
    9    46	 1
   10    43	 1
   10    47	 1
   11    44	 1
   12    41	 1
   12    42	 1
   12    43	 1
   12    45	 1
   13    41	 1
   13    42	 1
   13    18	 1
   13    16	 1
   13    17	 1
   14    40	 1
   14    22	 1
   14    20	 1
   14    19	 1
   14    51	 1
   15    21	 1
   15    48	 1
   15    54	 1
   15    55	 1
   15    52	 1
   15    53	 1
   16    49	 1
   16    50	 1
   16    20	 1
   16    19	 1
   16    51	 1
   17    49	 1
   17    50	 1
   17    20	 1
   17    19	 1
   17    51	 1
   18    49	 1
   18    50	 1
   21    40	 1
   21    49	 1
   21    50	 1
   22    48	 1
   23    27	 1
   23    26	 1
   23    35	 1
   24    36	 1
   24    62	 1
   24    33	 1
   24    28	 1
   25    37	 1
   25    31	 1
   25    29	 1
   25    30	 1
   25    32	 1
   25    34	 1
   25    35	 1
   26    56	 1
   26    33	 1
   26    36	 1
   26    32	 1
   26    57	 1
   26    58	 1
   27    56	 1
   27    28	 1
   27    31	 1
   27    59	 1
   27    60	 1
   27    61	 1
   27    38	 1
   27    62	 1
   28    33	 1
   28    59	 1
   28    60	 1
   29    32	 1
   29    57	 1
   29    58	 1
   30    32	 1
   30    57	 1
   30    58	 1
   31    34	 1
   32    36	 1
   32    35	 1
   32    61	 1
   33    37	 1
   33    57	 1
   33    58	 1
   33    38	 1
   34    59	 1
   34    60	 1
   34    39	 1
   34    63	 1
   34    64	 1
   34    37	 1
   35    62	 1
   35    65	 1
   35    66	 1
   35    67	 1
   36    61	 1
   36    39	 1
   36    63	 1
   36    64	 1
   37    56	 1
   37    38	 1
   38    61	 1
   40    41	 1
   40    42	 1
   40    48	 1
   43    44	 1
   44    45	 1
   45    46	 1
   46    47	 1
   48    49	 1
   48    50	 1
   51    54	 1
   51    55	 1
   51    52	 1
   51    53	 1
   52    54	 1
   52    55	 1
   53    54	 1
   53    55	 1
   57    59	 1
   57    60	 1
   58    59	 1
   58    60	 1
   63    65	 1
   63    66	 1
   63    67	 1
   64    65	 1
   64    66	 1
   64    67	 1

[ angles ]
;	ai	  aj	ak funct			c0			  c1			c2			  c3
   23     1     3	5 ;     CG2R61      CG2O1      NG2S1
   23     1     2	5 ;     CG2R61      CG2O1      OG2D1
    3     1     2	5 ;      NG2S1      CG2O1      OG2D1
    4     3     1	5 ;       HGP1      NG2S1      CG2O1
    4     3     5	5 ;       HGP1      NG2S1      CG311
    1     3     5	5 ;      CG2O1      NG2S1      CG311
    3     5     6	5 ;      NG2S1      CG311      CG321
    3     5    13	5 ;      NG2S1      CG311      CG311
    3     5    40	5 ;      NG2S1      CG311       HGA1
    6     5    13	5 ;      CG321      CG311      CG311
    6     5    40	5 ;      CG321      CG311       HGA1
   13     5    40	5 ;      CG311      CG311       HGA1
    5     6     7	5 ;      CG311      CG321     CG2R61
    5     6    41	5 ;      CG311      CG321       HGA2
    5     6    42	5 ;      CG311      CG321       HGA2
    7     6    41	5 ;     CG2R61      CG321       HGA2
    7     6    42	5 ;     CG2R61      CG321       HGA2
   41     6    42	5 ;       HGA2      CG321       HGA2
    6     7     8	5 ;      CG321     CG2R61     CG2R61
    6     7    12	5 ;      CG321     CG2R61     CG2R61
    8     7    12	5 ;     CG2R61     CG2R61     CG2R61
    7     8     9	5 ;     CG2R61     CG2R61     CG2R61
    7     8    43	5 ;     CG2R61     CG2R61      HGR61
    9     8    43	5 ;     CG2R61     CG2R61      HGR61
    8     9    10	5 ;     CG2R61     CG2R61     CG2R61
    8     9    44	5 ;     CG2R61     CG2R61      HGR61
   10     9    44	5 ;     CG2R61     CG2R61      HGR61
    9    10    11	5 ;     CG2R61     CG2R61     CG2R61
    9    10    45	5 ;     CG2R61     CG2R61      HGR61
   11    10    45	5 ;     CG2R61     CG2R61      HGR61
   12    11    10	5 ;     CG2R61     CG2R61     CG2R61
   12    11    46	5 ;     CG2R61     CG2R61      HGR61
   10    11    46	5 ;     CG2R61     CG2R61      HGR61
    7    12    11	5 ;     CG2R61     CG2R61     CG2R61
    7    12    47	5 ;     CG2R61     CG2R61      HGR61
   11    12    47	5 ;     CG2R61     CG2R61      HGR61
   14    13     5	5 ;      CG324      CG311      CG311
   14    13    21	5 ;      CG324      CG311      OG311
   14    13    48	5 ;      CG324      CG311       HGA1
    5    13    21	5 ;      CG311      CG311      OG311
    5    13    48	5 ;      CG311      CG311       HGA1
   21    13    48	5 ;      OG311      CG311       HGA1
   13    14    15	5 ;      CG311      CG324      NG3P2
   13    14    49	5 ;      CG311      CG324       HGA2
   13    14    50	5 ;      CG311      CG324       HGA2
   15    14    49	5 ;      NG3P2      CG324       HGA2
   15    14    50	5 ;      NG3P2      CG324       HGA2
   49    14    50	5 ;       HGA2      CG324       HGA2
   14    15    18	5 ;      CG324      NG3P2     CG3C31
   14    15    16	5 ;      CG324      NG3P2       HGP2
   14    15    17	5 ;      CG324      NG3P2       HGP2
   18    15    16	5 ;     CG3C31      NG3P2       HGP2
   18    15    17	5 ;     CG3C31      NG3P2       HGP2
   16    15    17	5 ;       HGP2      NG3P2       HGP2
   20    18    19	5 ;     CG3C31     CG3C31     CG3C31
   20    18    15	5 ;     CG3C31     CG3C31      NG3P2
   20    18    51	5 ;     CG3C31     CG3C31       HGA1
   19    18    15	5 ;     CG3C31     CG3C31      NG3P2
   19    18    51	5 ;     CG3C31     CG3C31       HGA1
   15    18    51	5 ;      NG3P2     CG3C31       HGA1
   20    19    18	5 ;     CG3C31     CG3C31     CG3C31
   20    19    52	5 ;     CG3C31     CG3C31       HGA2
   20    19    53	5 ;     CG3C31     CG3C31       HGA2
   18    19    52	5 ;     CG3C31     CG3C31       HGA2
   18    19    53	5 ;     CG3C31     CG3C31       HGA2
   52    19    53	5 ;       HGA2     CG3C31       HGA2
   18    20    19	5 ;     CG3C31     CG3C31     CG3C31
   18    20    54	5 ;     CG3C31     CG3C31       HGA2
   18    20    55	5 ;     CG3C31     CG3C31       HGA2
   19    20    54	5 ;     CG3C31     CG3C31       HGA2
   19    20    55	5 ;     CG3C31     CG3C31       HGA2
   54    20    55	5 ;       HGA2     CG3C31       HGA2
   13    21    22	5 ;      CG311      OG311       HGP1
   37    23    24	5 ;     CG2R61     CG2R61     CG2R61
   37    23     1	5 ;     CG2R61     CG2R61      CG2O1
   24    23     1	5 ;     CG2R61     CG2R61      CG2O1
   25    24    23	5 ;     CG2R61     CG2R61     CG2R61
   25    24    56	5 ;     CG2R61     CG2R61      HGR61
   23    24    56	5 ;     CG2R61     CG2R61      HGR61
   27    25    26	5 ;     CG2RC0     CG2R61      OG303
   27    25    24	5 ;     CG2RC0     CG2R61     CG2R61
   26    25    24	5 ;      OG303     CG2R61     CG2R61
   28    26    25	5 ;      SG3O2      OG303     CG2R61
   33    27    36	5 ;     NG2R51     CG2RC0     CG2RC0
   33    27    25	5 ;     NG2R51     CG2RC0     CG2R61
   36    27    25	5 ;     CG2RC0     CG2RC0     CG2R61
   31    28    29	5 ;      CG321      SG3O2      OG2P1
   31    28    30	5 ;      CG321      SG3O2      OG2P1
   31    28    26	5 ;      CG321      SG3O2      OG303
   29    28    30	5 ;      OG2P1      SG3O2      OG2P1
   29    28    26	5 ;      OG2P1      SG3O2      OG303
   30    28    26	5 ;      OG2P1      SG3O2      OG303
   32    31    28	5 ;      CG321      CG321      SG3O2
   32    31    57	5 ;      CG321      CG321       HGA2
   32    31    58	5 ;      CG321      CG321       HGA2
   28    31    57	5 ;      SG3O2      CG321       HGA2
   28    31    58	5 ;      SG3O2      CG321       HGA2
   57    31    58	5 ;       HGA2      CG321       HGA2
   31    32    33	5 ;      CG321      CG321     NG2R51
   31    32    59	5 ;      CG321      CG321       HGA2
   31    32    60	5 ;      CG321      CG321       HGA2
   33    32    59	5 ;     NG2R51      CG321       HGA2
   33    32    60	5 ;     NG2R51      CG321       HGA2
   59    32    60	5 ;       HGA2      CG321       HGA2
   32    33    34	5 ;      CG321     NG2R51     CG2R51
   32    33    27	5 ;      CG321     NG2R51     CG2RC0
   34    33    27	5 ;     CG2R51     NG2R51     CG2RC0
   33    34    35	5 ;     NG2R51     CG2R51     CG2R51
   33    34    61	5 ;     NG2R51     CG2R51      HGR52
   35    34    61	5 ;     CG2R51     CG2R51      HGR52
   34    35    38	5 ;     CG2R51     CG2R51      CG321
   34    35    36	5 ;     CG2R51     CG2R51     CG2RC0
   38    35    36	5 ;      CG321     CG2R51     CG2RC0
   35    36    27	5 ;     CG2R51     CG2RC0     CG2RC0
   35    36    37	5 ;     CG2R51     CG2RC0     CG2R61
   27    36    37	5 ;     CG2RC0     CG2RC0     CG2R61
   36    37    23	5 ;     CG2RC0     CG2R61     CG2R61
   36    37    62	5 ;     CG2RC0     CG2R61      HGR61
   23    37    62	5 ;     CG2R61     CG2R61      HGR61
   35    38    39	5 ;     CG2R51      CG321      CG331
   35    38    63	5 ;     CG2R51      CG321       HGA2
   35    38    64	5 ;     CG2R51      CG321       HGA2
   39    38    63	5 ;      CG331      CG321       HGA2
   39    38    64	5 ;      CG331      CG321       HGA2
   63    38    64	5 ;       HGA2      CG321       HGA2
   38    39    65	5 ;      CG321      CG331       HGA3
   38    39    66	5 ;      CG321      CG331       HGA3
   38    39    67	5 ;      CG321      CG331       HGA3
   65    39    66	5 ;       HGA3      CG331       HGA3
   65    39    67	5 ;       HGA3      CG331       HGA3
   66    39    67	5 ;       HGA3      CG331       HGA3

[ dihedrals ]
;	ai	  aj	ak	  al funct			  c0			c1			  c2			c3			  c4			c5
    3     1    23    37	 9 ;      NG2S1      CG2O1     CG2R61     CG2R61
    3     1    23    24	 9 ;      NG2S1      CG2O1     CG2R61     CG2R61
    2     1    23    37	 9 ;      OG2D1      CG2O1     CG2R61     CG2R61
    2     1    23    24	 9 ;      OG2D1      CG2O1     CG2R61     CG2R61
   23     1     3     4	 9 ;     CG2R61      CG2O1      NG2S1       HGP1
   23     1     3     5	 9 ;     CG2R61      CG2O1      NG2S1      CG311
    2     1     3     4	 9 ;      OG2D1      CG2O1      NG2S1       HGP1
    2     1     3     5	 9 ;      OG2D1      CG2O1      NG2S1      CG311
    4     3     5     6	 9 ;       HGP1      NG2S1      CG311      CG321
    4     3     5    13	 9 ;       HGP1      NG2S1      CG311      CG311
    4     3     5    40	 9 ;       HGP1      NG2S1      CG311       HGA1
    1     3     5     6	 9 ;      CG2O1      NG2S1      CG311      CG321
    1     3     5    13	 9 ;      CG2O1      NG2S1      CG311      CG311
    1     3     5    40	 9 ;      CG2O1      NG2S1      CG311       HGA1
    3     5     6     7	 9 ;      NG2S1      CG311      CG321     CG2R61
    3     5     6    41	 9 ;      NG2S1      CG311      CG321       HGA2
    3     5     6    42	 9 ;      NG2S1      CG311      CG321       HGA2
   13     5     6     7	 9 ;      CG311      CG311      CG321     CG2R61
   13     5     6    41	 9 ;      CG311      CG311      CG321       HGA2
   13     5     6    42	 9 ;      CG311      CG311      CG321       HGA2
   40     5     6     7	 9 ;       HGA1      CG311      CG321     CG2R61
   40     5     6    41	 9 ;       HGA1      CG311      CG321       HGA2
   40     5     6    42	 9 ;       HGA1      CG311      CG321       HGA2
    3     5    13    14	 9 ;      NG2S1      CG311      CG311      CG324
    3     5    13    21	 9 ;      NG2S1      CG311      CG311      OG311
    3     5    13    48	 9 ;      NG2S1      CG311      CG311       HGA1
    6     5    13    14	 9 ;      CG321      CG311      CG311      CG324
    6     5    13    21	 9 ;      CG321      CG311      CG311      OG311
    6     5    13    48	 9 ;      CG321      CG311      CG311       HGA1
   40     5    13    14	 9 ;       HGA1      CG311      CG311      CG324
   40     5    13    21	 9 ;       HGA1      CG311      CG311      OG311
   40     5    13    48	 9 ;       HGA1      CG311      CG311       HGA1
    5     6     7     8	 9 ;      CG311      CG321     CG2R61     CG2R61
    5     6     7    12	 9 ;      CG311      CG321     CG2R61     CG2R61
   41     6     7     8	 9 ;       HGA2      CG321     CG2R61     CG2R61
   41     6     7    12	 9 ;       HGA2      CG321     CG2R61     CG2R61
   42     6     7     8	 9 ;       HGA2      CG321     CG2R61     CG2R61
   42     6     7    12	 9 ;       HGA2      CG321     CG2R61     CG2R61
    6     7     8     9	 9 ;      CG321     CG2R61     CG2R61     CG2R61
    6     7     8    43	 9 ;      CG321     CG2R61     CG2R61      HGR61
   12     7     8     9	 9 ;     CG2R61     CG2R61     CG2R61     CG2R61
   12     7     8    43	 9 ;     CG2R61     CG2R61     CG2R61      HGR61
    6     7    12    11	 9 ;      CG321     CG2R61     CG2R61     CG2R61
    6     7    12    47	 9 ;      CG321     CG2R61     CG2R61      HGR61
    8     7    12    11	 9 ;     CG2R61     CG2R61     CG2R61     CG2R61
    8     7    12    47	 9 ;     CG2R61     CG2R61     CG2R61      HGR61
    7     8     9    10	 9 ;     CG2R61     CG2R61     CG2R61     CG2R61
    7     8     9    44	 9 ;     CG2R61     CG2R61     CG2R61      HGR61
   43     8     9    10	 9 ;      HGR61     CG2R61     CG2R61     CG2R61
   43     8     9    44	 9 ;      HGR61     CG2R61     CG2R61      HGR61
    8     9    10    11	 9 ;     CG2R61     CG2R61     CG2R61     CG2R61
    8     9    10    45	 9 ;     CG2R61     CG2R61     CG2R61      HGR61
   44     9    10    11	 9 ;      HGR61     CG2R61     CG2R61     CG2R61
   44     9    10    45	 9 ;      HGR61     CG2R61     CG2R61      HGR61
    9    10    11    12	 9 ;     CG2R61     CG2R61     CG2R61     CG2R61
    9    10    11    46	 9 ;     CG2R61     CG2R61     CG2R61      HGR61
   45    10    11    12	 9 ;      HGR61     CG2R61     CG2R61     CG2R61
   45    10    11    46	 9 ;      HGR61     CG2R61     CG2R61      HGR61
   10    11    12     7	 9 ;     CG2R61     CG2R61     CG2R61     CG2R61
   10    11    12    47	 9 ;     CG2R61     CG2R61     CG2R61      HGR61
   46    11    12     7	 9 ;      HGR61     CG2R61     CG2R61     CG2R61
   46    11    12    47	 9 ;      HGR61     CG2R61     CG2R61      HGR61
    5    13    14    15	 9 ;      CG311      CG311      CG324      NG3P2
    5    13    14    49	 9 ;      CG311      CG311      CG324       HGA2
    5    13    14    50	 9 ;      CG311      CG311      CG324       HGA2
   21    13    14    15	 9 ;      OG311      CG311      CG324      NG3P2
   21    13    14    49	 9 ;      OG311      CG311      CG324       HGA2
   21    13    14    50	 9 ;      OG311      CG311      CG324       HGA2
   48    13    14    15	 9 ;       HGA1      CG311      CG324      NG3P2
   48    13    14    49	 9 ;       HGA1      CG311      CG324       HGA2
   48    13    14    50	 9 ;       HGA1      CG311      CG324       HGA2
   14    13    21    22	 9 ;      CG324      CG311      OG311       HGP1
    5    13    21    22	 9 ;      CG311      CG311      OG311       HGP1
   48    13    21    22	 9 ;       HGA1      CG311      OG311       HGP1
   13    14    15    18	 9 ;      CG311      CG324      NG3P2     CG3C31
   13    14    15    16	 9 ;      CG311      CG324      NG3P2       HGP2
   13    14    15    17	 9 ;      CG311      CG324      NG3P2       HGP2
   49    14    15    18	 9 ;       HGA2      CG324      NG3P2     CG3C31
   49    14    15    16	 9 ;       HGA2      CG324      NG3P2       HGP2
   49    14    15    17	 9 ;       HGA2      CG324      NG3P2       HGP2
   50    14    15    18	 9 ;       HGA2      CG324      NG3P2     CG3C31
   50    14    15    16	 9 ;       HGA2      CG324      NG3P2       HGP2
   50    14    15    17	 9 ;       HGA2      CG324      NG3P2       HGP2
   14    15    18    20	 9 ;      CG324      NG3P2     CG3C31     CG3C31
   14    15    18    19	 9 ;      CG324      NG3P2     CG3C31     CG3C31
   14    15    18    51	 9 ;      CG324      NG3P2     CG3C31       HGA1
   16    15    18    20	 9 ;       HGP2      NG3P2     CG3C31     CG3C31
   16    15    18    19	 9 ;       HGP2      NG3P2     CG3C31     CG3C31
   16    15    18    51	 9 ;       HGP2      NG3P2     CG3C31       HGA1
   17    15    18    20	 9 ;       HGP2      NG3P2     CG3C31     CG3C31
   17    15    18    19	 9 ;       HGP2      NG3P2     CG3C31     CG3C31
   17    15    18    51	 9 ;       HGP2      NG3P2     CG3C31       HGA1
   19    18    20    54	 9 ;     CG3C31     CG3C31     CG3C31       HGA2
   19    18    20    55	 9 ;     CG3C31     CG3C31     CG3C31       HGA2
   15    18    20    19	 9 ;      NG3P2     CG3C31     CG3C31     CG3C31
   15    18    20    54	 9 ;      NG3P2     CG3C31     CG3C31       HGA2
   15    18    20    55	 9 ;      NG3P2     CG3C31     CG3C31       HGA2
   51    18    20    19	 9 ;       HGA1     CG3C31     CG3C31     CG3C31
   51    18    20    54	 9 ;       HGA1     CG3C31     CG3C31       HGA2
   51    18    20    55	 9 ;       HGA1     CG3C31     CG3C31       HGA2
   20    18    19    52	 9 ;     CG3C31     CG3C31     CG3C31       HGA2
   20    18    19    53	 9 ;     CG3C31     CG3C31     CG3C31       HGA2
   15    18    19    20	 9 ;      NG3P2     CG3C31     CG3C31     CG3C31
   15    18    19    52	 9 ;      NG3P2     CG3C31     CG3C31       HGA2
   15    18    19    53	 9 ;      NG3P2     CG3C31     CG3C31       HGA2
   51    18    19    20	 9 ;       HGA1     CG3C31     CG3C31     CG3C31
   51    18    19    52	 9 ;       HGA1     CG3C31     CG3C31       HGA2
   51    18    19    53	 9 ;       HGA1     CG3C31     CG3C31       HGA2
   18    19    20    54	 9 ;     CG3C31     CG3C31     CG3C31       HGA2
   18    19    20    55	 9 ;     CG3C31     CG3C31     CG3C31       HGA2
   52    19    20    18	 9 ;       HGA2     CG3C31     CG3C31     CG3C31
   52    19    20    54	 9 ;       HGA2     CG3C31     CG3C31       HGA2
   52    19    20    55	 9 ;       HGA2     CG3C31     CG3C31       HGA2
   53    19    20    18	 9 ;       HGA2     CG3C31     CG3C31     CG3C31
   53    19    20    54	 9 ;       HGA2     CG3C31     CG3C31       HGA2
   53    19    20    55	 9 ;       HGA2     CG3C31     CG3C31       HGA2
   24    23    37    36	 9 ;     CG2R61     CG2R61     CG2R61     CG2RC0
   24    23    37    62	 9 ;     CG2R61     CG2R61     CG2R61      HGR61
    1    23    37    36	 9 ;      CG2O1     CG2R61     CG2R61     CG2RC0
    1    23    37    62	 9 ;      CG2O1     CG2R61     CG2R61      HGR61
   37    23    24    25	 9 ;     CG2R61     CG2R61     CG2R61     CG2R61
   37    23    24    56	 9 ;     CG2R61     CG2R61     CG2R61      HGR61
    1    23    24    25	 9 ;      CG2O1     CG2R61     CG2R61     CG2R61
    1    23    24    56	 9 ;      CG2O1     CG2R61     CG2R61      HGR61
   23    24    25    27	 9 ;     CG2R61     CG2R61     CG2R61     CG2RC0
   23    24    25    26	 9 ;     CG2R61     CG2R61     CG2R61      OG303
   56    24    25    27	 9 ;      HGR61     CG2R61     CG2R61     CG2RC0
   56    24    25    26	 9 ;      HGR61     CG2R61     CG2R61      OG303
   26    25    27    33	 9 ;      OG303     CG2R61     CG2RC0     NG2R51
   26    25    27    36	 9 ;      OG303     CG2R61     CG2RC0     CG2RC0
   24    25    27    33	 9 ;     CG2R61     CG2R61     CG2RC0     NG2R51
   24    25    27    36	 9 ;     CG2R61     CG2R61     CG2RC0     CG2RC0
   27    25    26    28	 9 ;     CG2RC0     CG2R61      OG303      SG3O2
   24    25    26    28	 9 ;     CG2R61     CG2R61      OG303      SG3O2
   25    26    28    31	 9 ;     CG2R61      OG303      SG3O2      CG321
   25    26    28    29	 9 ;     CG2R61      OG303      SG3O2      OG2P1
   25    26    28    30	 9 ;     CG2R61      OG303      SG3O2      OG2P1
   36    27    33    32	 9 ;     CG2RC0     CG2RC0     NG2R51      CG321
   36    27    33    34	 9 ;     CG2RC0     CG2RC0     NG2R51     CG2R51
   25    27    33    32	 9 ;     CG2R61     CG2RC0     NG2R51      CG321
   25    27    33    34	 9 ;     CG2R61     CG2RC0     NG2R51     CG2R51
   33    27    36    35	 9 ;     NG2R51     CG2RC0     CG2RC0     CG2R51
   33    27    36    37	 9 ;     NG2R51     CG2RC0     CG2RC0     CG2R61
   25    27    36    35	 9 ;     CG2R61     CG2RC0     CG2RC0     CG2R51
   25    27    36    37	 9 ;     CG2R61     CG2RC0     CG2RC0     CG2R61
   29    28    31    32	 9 ;      OG2P1      SG3O2      CG321      CG321
   29    28    31    57	 9 ;      OG2P1      SG3O2      CG321       HGA2
   29    28    31    58	 9 ;      OG2P1      SG3O2      CG321       HGA2
   30    28    31    32	 9 ;      OG2P1      SG3O2      CG321      CG321
   30    28    31    57	 9 ;      OG2P1      SG3O2      CG321       HGA2
   30    28    31    58	 9 ;      OG2P1      SG3O2      CG321       HGA2
   26    28    31    32	 9 ;      OG303      SG3O2      CG321      CG321
   26    28    31    57	 9 ;      OG303      SG3O2      CG321       HGA2
   26    28    31    58	 9 ;      OG303      SG3O2      CG321       HGA2
   28    31    32    33	 9 ;      SG3O2      CG321      CG321     NG2R51
   28    31    32    59	 9 ;      SG3O2      CG321      CG321       HGA2
   28    31    32    60	 9 ;      SG3O2      CG321      CG321       HGA2
   57    31    32    33	 9 ;       HGA2      CG321      CG321     NG2R51
   57    31    32    59	 9 ;       HGA2      CG321      CG321       HGA2
   57    31    32    60	 9 ;       HGA2      CG321      CG321       HGA2
   58    31    32    33	 9 ;       HGA2      CG321      CG321     NG2R51
   58    31    32    59	 9 ;       HGA2      CG321      CG321       HGA2
   58    31    32    60	 9 ;       HGA2      CG321      CG321       HGA2
   31    32    33    34	 9 ;      CG321      CG321     NG2R51     CG2R51
   31    32    33    27	 9 ;      CG321      CG321     NG2R51     CG2RC0
   59    32    33    34	 9 ;       HGA2      CG321     NG2R51     CG2R51
   59    32    33    27	 9 ;       HGA2      CG321     NG2R51     CG2RC0
   60    32    33    34	 9 ;       HGA2      CG321     NG2R51     CG2R51
   60    32    33    27	 9 ;       HGA2      CG321     NG2R51     CG2RC0
   32    33    34    35	 9 ;      CG321     NG2R51     CG2R51     CG2R51
   32    33    34    61	 9 ;      CG321     NG2R51     CG2R51      HGR52
   27    33    34    35	 9 ;     CG2RC0     NG2R51     CG2R51     CG2R51
   27    33    34    61	 9 ;     CG2RC0     NG2R51     CG2R51      HGR52
   33    34    35    38	 9 ;     NG2R51     CG2R51     CG2R51      CG321
   33    34    35    36	 9 ;     NG2R51     CG2R51     CG2R51     CG2RC0
   61    34    35    38	 9 ;      HGR52     CG2R51     CG2R51      CG321
   61    34    35    36	 9 ;      HGR52     CG2R51     CG2R51     CG2RC0
   34    35    38    39	 9 ;     CG2R51     CG2R51      CG321      CG331
   34    35    38    63	 9 ;     CG2R51     CG2R51      CG321       HGA2
   34    35    38    64	 9 ;     CG2R51     CG2R51      CG321       HGA2
   36    35    38    39	 9 ;     CG2RC0     CG2R51      CG321      CG331
   36    35    38    63	 9 ;     CG2RC0     CG2R51      CG321       HGA2
   36    35    38    64	 9 ;     CG2RC0     CG2R51      CG321       HGA2
   34    35    36    27	 9 ;     CG2R51     CG2R51     CG2RC0     CG2RC0
   34    35    36    37	 9 ;     CG2R51     CG2R51     CG2RC0     CG2R61
   38    35    36    27	 9 ;      CG321     CG2R51     CG2RC0     CG2RC0
   38    35    36    37	 9 ;      CG321     CG2R51     CG2RC0     CG2R61
   35    36    37    23	 9 ;     CG2R51     CG2RC0     CG2R61     CG2R61
   35    36    37    62	 9 ;     CG2R51     CG2RC0     CG2R61      HGR61
   27    36    37    23	 9 ;     CG2RC0     CG2RC0     CG2R61     CG2R61
   27    36    37    62	 9 ;     CG2RC0     CG2RC0     CG2R61      HGR61
   35    38    39    65	 9 ;     CG2R51      CG321      CG331       HGA3
   35    38    39    66	 9 ;     CG2R51      CG321      CG331       HGA3
   35    38    39    67	 9 ;     CG2R51      CG321      CG331       HGA3
   63    38    39    65	 9 ;       HGA2      CG321      CG331       HGA3
   63    38    39    66	 9 ;       HGA2      CG321      CG331       HGA3
   63    38    39    67	 9 ;       HGA2      CG321      CG331       HGA3
   64    38    39    65	 9 ;       HGA2      CG321      CG331       HGA3
   64    38    39    66	 9 ;       HGA2      CG321      CG331       HGA3
   64    38    39    67	 9 ;       HGA2      CG321      CG331       HGA3

[ dihedrals ]
;	ai	  aj	ak	  al funct			  c0			c1			  c2			c3
    1    23     3     2	 2

