Gallium Rubidium Oxygen Manganese Argon Carbon Silicon
   67
    1LIG     C1    1  -1.146   0.539  -1.551
    1LIG     O1    2  -1.188   0.645  -1.506
    1LIG     N1    3  -1.213   0.420  -1.532
    1LIG     H1    4  -1.189   0.343  -1.593
    1LIG     C2    5  -1.321   0.396  -1.436
    1LIG     C3    6  -1.431   0.294  -1.477
    1LIG     C4    7  -1.575   0.340  -1.490
    1LIG     C5    8  -1.664   0.262  -1.567
    1LIG     C6    9  -1.799   0.295  -1.577
    1LIG     C7   10  -1.849   0.406  -1.509
    1LIG     C8   11  -1.763   0.483  -1.432
    1LIG     C9   12  -1.627   0.450  -1.421
    1LIG    C10   13  -1.271   0.373  -1.290
    1LIG    C11   14  -1.176   0.255  -1.261
    1LIG     N2   15  -1.262   0.157  -1.181
    1LIG     H2   16  -1.226   0.166  -1.084
    1LIG     H3   17  -1.358   0.192  -1.176
    1LIG    C12   18  -1.267   0.016  -1.221
    1LIG    C13   19  -1.217  -0.081  -1.117
    1LIG    C14   20  -1.138  -0.057  -1.242
    1LIG     O2   21  -1.204   0.490  -1.236
    1LIG     H4   22  -1.242   0.569  -1.279
    1LIG    C15   23  -1.021   0.533  -1.635
    1LIG    C16   24  -0.923   0.631  -1.614
    1LIG    C17   25  -0.807   0.630  -1.689
    1LIG     O3   26  -0.723   0.739  -1.690
    1LIG    C18   27  -0.780   0.521  -1.772
    1LIG      S   28  -0.697   0.810  -1.837
    1LIG     O4   29  -0.644   0.943  -1.813
    1LIG     O5   30  -0.813   0.792  -1.922
    1LIG    C19   31  -0.563   0.710  -1.902
    1LIG    C20   32  -0.547   0.574  -1.837
    1LIG     N3   33  -0.667   0.493  -1.844
    1LIG    C21   34  -0.684   0.379  -1.917
    1LIG    C22   35  -0.813   0.334  -1.895
    1LIG    C23   36  -0.874   0.422  -1.799
    1LIG    C24   37  -0.999   0.431  -1.732
    1LIG    C25   38  -0.873   0.213  -1.960
    1LIG    C26   39  -0.910   0.105  -1.861
    1LIG     HC   40  -1.374   0.491  -1.431
    1LIG    HC2   41  -1.402   0.254  -1.575
    1LIG    HC3   42  -1.428   0.212  -1.406
    1LIG    HC1   43  -1.627   0.176  -1.620
    1LIG    HC4   44  -1.865   0.234  -1.637
    1LIG    HC5   45  -1.954   0.431  -1.517
    1LIG    HC6   46  -1.802   0.570  -1.379
    1LIG    HC7   47  -1.562   0.510  -1.359
    1LIG    HC8   48  -1.360   0.357  -1.229
    1LIG    HC9   49  -1.143   0.209  -1.354
    1LIG   HC10   50  -1.091   0.288  -1.202
    1LIG   HC11   51  -1.352  -0.015  -1.281
    1LIG   HC12   52  -1.180  -0.043  -1.021
    1LIG   HC13   53  -1.270  -0.176  -1.112
    1LIG   HC14   54  -1.132  -0.135  -1.318
    1LIG   HC15   55  -1.048   0.003  -1.230
    1LIG   HC16   56  -0.939   0.707  -1.538
    1LIG   HC17   57  -0.470   0.765  -1.888
    1LIG   HC18   58  -0.580   0.695  -2.009
    1LIG   HC19   59  -0.466   0.521  -1.888
    1LIG   HC20   60  -0.520   0.588  -1.732
    1LIG   HC21   61  -0.610   0.332  -1.980
    1LIG   HC22   62  -1.077   0.360  -1.754
    1LIG   HC23   63  -0.963   0.244  -2.013
    1LIG   HC24   64  -0.802   0.173  -2.032
    1LIG   HC25   65  -0.952   0.020  -1.914
    1LIG   HC26   66  -0.820   0.073  -1.807
    1LIG   HC27   67  -0.982   0.144  -1.789
   0.00000   0.00000   0.00000
