GROtesk MACabre and Sinister
   54
    1LIG     C1    1  -1.653   0.518  -1.507
    1LIG     C2    2  -1.551   0.438  -1.451
    1LIG     C3    3  -1.415   0.458  -1.482
    1LIG     C4    4  -1.380   0.558  -1.574
    1LIG     O1    5  -1.253   0.585  -1.617
    1LIG     C5    6  -1.148   0.495  -1.577
    1LIG     C6    7  -1.172   0.442  -1.435
    1LIG     C7    8  -1.308   0.372  -1.420
    1LIG     N1    9  -1.324   0.349  -1.272
    1LIG     HN   10  -1.351   0.417  -1.201
    1LIG     C8   11  -1.296   0.223  -1.255
    1LIG     N2   12  -1.277   0.150  -1.366
    1LIG     C9   13  -1.253   0.008  -1.377
    1LIG    C10   14  -1.307   0.228  -1.473
    1LIG     O2   15  -1.333   0.188  -1.586
    1LIG    C11   16  -1.132   0.384  -1.681
    1LIG    C12   17  -1.019   0.579  -1.577
    1LIG    C13   18  -1.479   0.640  -1.628
    1LIG    C14   19  -1.613   0.621  -1.594
    1LIG     N3   20  -1.288   0.169  -1.131
    1LIG     H1   21  -1.220   0.215  -1.071
    1LIG     H2   22  -1.374   0.145  -1.085
    1LIG    C15   23  -1.796   0.494  -1.476
    1LIG    C16   24  -1.873   0.591  -1.408
    1LIG    C17   25  -2.007   0.570  -1.375
    1LIG    C18   26  -2.069   0.451  -1.416
    1LIG    C19   27  -1.996   0.355  -1.485
    1LIG    C20   28  -1.861   0.376  -1.514
    1LIG      S   29  -2.106   0.690  -1.286
    1LIG    C21   30  -2.258   0.596  -1.253
    1LIG     HC   31  -1.578   0.359  -1.383
    1LIG    HC2   32  -1.093   0.370  -1.411
    1LIG    HC3   33  -1.166   0.525  -1.365
    1LIG    HN2   34  -1.421   0.325  -1.286
    1LIG    HC1   35  -1.189   0.247  -1.252
    1LIG    HC4   36  -1.451   0.719  -1.696
    1LIG    HC5   37  -1.688   0.687  -1.635
    1LIG    HN1   38  -1.245   0.079  -1.149
    1LIG    HC6   39  -1.826   0.685  -1.381
    1LIG    HC7   40  -2.173   0.435  -1.393
    1LIG    HC8   41  -2.045   0.264  -1.517
    1LIG    HC9   42  -1.806   0.299  -1.566
    1LIG   HC10   43  -1.028   0.659  -1.503
    1LIG   HC11   44  -0.935   0.516  -1.551
    1LIG   HC12   45  -1.004   0.623  -1.675
    1LIG   HC13   46  -1.257  -0.022  -1.482
    1LIG   HC14   47  -1.329  -0.046  -1.321
    1LIG   HC15   48  -1.154  -0.016  -1.336
    1LIG   HC16   49  -1.055   0.414  -1.753
    1LIG   HC17   50  -1.226   0.369  -1.734
    1LIG   HC18   51  -1.102   0.292  -1.632
    1LIG   HC19   52  -2.321   0.652  -1.184
    1LIG   HC20   53  -2.311   0.579  -1.346
    1LIG   HC21   54  -2.232   0.500  -1.208
   0.00000   0.00000   0.00000
