; Created by cgenff_charmm2gmx.py

[ moleculetype ]
; Name			   nrexcl
LIG				 3

[ atoms ]
;	 nr		  type	resnr residue  atom   cgnr	   charge		mass  typeB    chargeB		massB
; residue	 1 LIG rtp LIG q	qsum
     1     CG2R67      1    LIG     C1      1      0.014     12.011   ;
     2     CG2R61      1    LIG     C2      2     -0.128     12.011   ;
     3     CG2R61      1    LIG     C3      3     -0.256     12.011   ;
     4     CG2R61      1    LIG     C4      4      0.130     12.011   ;
     5     OG3R60      1    LIG     O1      5     -0.368     15.999   ;
     6      CG301      1    LIG     C5      6      0.259     12.011   ;
     7      CG321      1    LIG     C6      7     -0.251     12.011   ;
     8     CG3C50      1    LIG     C7      8      1.577     12.011   ;
     9      NG3P2      1    LIG     N1      9     -0.588     14.007   ;
    10       HGP2      1    LIG     HN     10      0.336      1.008   ;
    11     CG3C53      1    LIG     C8     11      0.785     12.011   ;
    12     NG2R53      1    LIG     N2     12     -0.178     14.007   ;
    13      CG331      1    LIG     C9     13     -0.169     12.011   ;
    14     CG2R53      1    LIG    C10     14     -0.420     12.011   ;
    15      OG2D1      1    LIG     O2     15     -0.325     15.999   ;
    16      CG331      1    LIG    C11     16     -0.287     12.011   ;
    17      CG331      1    LIG    C12     17     -0.287     12.011   ;
    18     CG2R61      1    LIG    C13     18     -0.112     12.011   ;
    19     CG2R61      1    LIG    C14     19     -0.115     12.011   ;
    20      NG3P3      1    LIG     N3     20     -0.267     14.007   ;
    21       HGP2      1    LIG     H1     21      0.301      1.008   ;
    22       HGP2      1    LIG     H2     22      0.301      1.008   ;
    23     CG2R67      1    LIG    C15     23      0.005     12.011   ;
    24     CG2R61      1    LIG    C16     24     -0.118     12.011   ;
    25     CG2R61      1    LIG    C17     25      0.109     12.011   ;
    26     CG2R61      1    LIG    C18     26     -0.111     12.011   ;
    27     CG2R61      1    LIG    C19     27     -0.117     12.011   ;
    28     CG2R61      1    LIG    C20     28     -0.119     12.011   ;
    29      SG311      1    LIG      S     29     -0.320     32.060   ;
    30      CG331      1    LIG    C21     30     -0.063     12.011   ;
    31      HGR61      1    LIG     HC     31      0.116      1.008   ;
    32       HGA2      1    LIG    HC2     32      0.090      1.008   ;
    33       HGA2      1    LIG    HC3     33      0.090      1.008   ;
    34       HGP2      1    LIG    HN2     34      0.336      1.008   ;
    35       HGA1      1    LIG    HC1     35      0.073      1.008   ;
    36      HGR61      1    LIG    HC4     36      0.116      1.008   ;
    37      HGR61      1    LIG    HC5     37      0.116      1.008   ;
    38       HGP2      1    LIG    HN1     38      0.301      1.008   ;
    39      HGR61      1    LIG    HC6     39      0.116      1.008   ;
    40      HGR61      1    LIG    HC7     40      0.116      1.008   ;
    41      HGR61      1    LIG    HC8     41      0.116      1.008   ;
    42      HGR61      1    LIG    HC9     42      0.116      1.008   ;
    43       HGA3      1    LIG   HC10     43      0.090      1.008   ;
    44       HGA3      1    LIG   HC11     44      0.090      1.008   ;
    45       HGA3      1    LIG   HC12     45      0.090      1.008   ;
    46       HGA3      1    LIG   HC13     46      0.090      1.008   ;
    47       HGA3      1    LIG   HC14     47      0.090      1.008   ;
    48       HGA3      1    LIG   HC15     48      0.090      1.008   ;
    49       HGA3      1    LIG   HC16     49      0.090      1.008   ;
    50       HGA3      1    LIG   HC17     50      0.090      1.008   ;
    51       HGA3      1    LIG   HC18     51      0.090      1.008   ;
    52       HGA3      1    LIG   HC19     52      0.090      1.008   ;
    53       HGA3      1    LIG   HC20     53      0.090      1.008   ;
    54       HGA3      1    LIG   HC21     54      0.090      1.008   ;

[ bonds ]
;	ai	  aj funct			  c0			c1			  c2			c3
    1    19	 1 ;      CG2R67     CG2R61
    1     2	 1 ;      CG2R67     CG2R61
    1    23	 1 ;      CG2R67     CG2R67
    2     3	 1 ;      CG2R61     CG2R61
    2    31	 1 ;      CG2R61      HGR61
    3     4	 1 ;      CG2R61     CG2R61
    3     8	 1 ;      CG2R61     CG3C50
    4     5	 1 ;      CG2R61     OG3R60
    4    18	 1 ;      CG2R61     CG2R61
    5     6	 1 ;      OG3R60      CG301
    6    16	 1 ;       CG301      CG331
    6    17	 1 ;       CG301      CG331
    6     7	 1 ;       CG301      CG321
    7     8	 1 ;       CG321     CG3C50
    7    32	 1 ;       CG321       HGA2
    7    33	 1 ;       CG321       HGA2
    8    14	 1 ;      CG3C50     CG2R53
    8     9	 1 ;      CG3C50      NG3P2
    9    11	 1 ;       NG3P2     CG3C53
    9    10	 1 ;       NG3P2       HGP2
    9    34	 1 ;       NG3P2       HGP2
   11    12	 1 ;      CG3C53     NG2R53
   11    20	 1 ;      CG3C53      NG3P3
   11    35	 1 ;      CG3C53       HGA1
   12    13	 1 ;      NG2R53      CG331
   12    14	 1 ;      NG2R53     CG2R53
   13    46	 1 ;       CG331       HGA3
   13    47	 1 ;       CG331       HGA3
   13    48	 1 ;       CG331       HGA3
   14    15	 1 ;      CG2R53      OG2D1
   16    49	 1 ;       CG331       HGA3
   16    50	 1 ;       CG331       HGA3
   16    51	 1 ;       CG331       HGA3
   17    43	 1 ;       CG331       HGA3
   17    44	 1 ;       CG331       HGA3
   17    45	 1 ;       CG331       HGA3
   18    19	 1 ;      CG2R61     CG2R61
   18    36	 1 ;      CG2R61      HGR61
   19    37	 1 ;      CG2R61      HGR61
   20    21	 1 ;       NG3P3       HGP2
   20    22	 1 ;       NG3P3       HGP2
   20    38	 1 ;       NG3P3       HGP2
   23    28	 1 ;      CG2R67     CG2R61
   23    24	 1 ;      CG2R67     CG2R61
   24    25	 1 ;      CG2R61     CG2R61
   24    39	 1 ;      CG2R61      HGR61
   25    26	 1 ;      CG2R61     CG2R61
   25    29	 1 ;      CG2R61      SG311
   26    27	 1 ;      CG2R61     CG2R61
   26    40	 1 ;      CG2R61      HGR61
   27    28	 1 ;      CG2R61     CG2R61
   27    41	 1 ;      CG2R61      HGR61
   28    42	 1 ;      CG2R61      HGR61
   29    30	 1 ;       SG311      CG331
   30    52	 1 ;       CG331       HGA3
   30    53	 1 ;       CG331       HGA3
   30    54	 1 ;       CG331       HGA3

[ pairs ]
;	ai	  aj funct			  c0			c1			  c2			c3
    1     4	 1
    1     8	 1
    1    36	 1
    1    27	 1
    1    42	 1
    1    25	 1
    1    39	 1
    2    18	 1
    2    37	 1
    2    28	 1
    2    24	 1
    2     5	 1
    2     7	 1
    2    14	 1
    2     9	 1
    3    19	 1
    3    23	 1
    3     6	 1
    3    36	 1
    3    32	 1
    3    33	 1
    3    15	 1
    3    12	 1
    3    11	 1
    3    10	 1
    3    34	 1
    4    31	 1
    4     7	 1
    4    14	 1
    4     9	 1
    4    16	 1
    4    17	 1
    4    37	 1
    5     8	 1
    5    19	 1
    5    36	 1
    5    49	 1
    5    50	 1
    5    51	 1
    5    43	 1
    5    44	 1
    5    45	 1
    5    32	 1
    5    33	 1
    6    18	 1
    6    14	 1
    6     9	 1
    7    49	 1
    7    50	 1
    7    51	 1
    7    43	 1
    7    44	 1
    7    45	 1
    7    15	 1
    7    12	 1
    7    11	 1
    7    10	 1
    7    34	 1
    8    31	 1
    8    18	 1
    8    16	 1
    8    17	 1
    8    20	 1
    8    35	 1
    8    13	 1
    9    32	 1
    9    33	 1
    9    15	 1
    9    13	 1
    9    21	 1
    9    22	 1
    9    38	 1
   10    14	 1
   10    12	 1
   10    20	 1
   10    35	 1
   11    46	 1
   11    47	 1
   11    48	 1
   11    15	 1
   12    34	 1
   12    21	 1
   12    22	 1
   12    38	 1
   13    20	 1
   13    35	 1
   13    15	 1
   14    32	 1
   14    33	 1
   14    34	 1
   14    20	 1
   14    35	 1
   14    46	 1
   14    47	 1
   14    48	 1
   16    43	 1
   16    44	 1
   16    45	 1
   16    32	 1
   16    33	 1
   17    49	 1
   17    50	 1
   17    51	 1
   17    32	 1
   17    33	 1
   18    23	 1
   19    31	 1
   19    28	 1
   19    24	 1
   20    34	 1
   21    35	 1
   22    35	 1
   23    37	 1
   23    31	 1
   23    26	 1
   23    29	 1
   23    41	 1
   24    27	 1
   24    42	 1
   24    40	 1
   24    30	 1
   25    28	 1
   25    41	 1
   25    52	 1
   25    53	 1
   25    54	 1
   26    39	 1
   26    30	 1
   26    42	 1
   27    29	 1
   28    39	 1
   28    40	 1
   29    39	 1
   29    40	 1
   34    35	 1
   35    38	 1
   36    37	 1
   40    41	 1
   41    42	 1

[ angles ]
;	ai	  aj	ak funct			c0			  c1			c2			  c3
   19     1     2	5 ;     CG2R61     CG2R67     CG2R61
   19     1    23	5 ;     CG2R61     CG2R67     CG2R67
    2     1    23	5 ;     CG2R61     CG2R67     CG2R67
    3     2     1	5 ;     CG2R61     CG2R61     CG2R67
    3     2    31	5 ;     CG2R61     CG2R61      HGR61
    1     2    31	5 ;     CG2R67     CG2R61      HGR61
    4     3     8	5 ;     CG2R61     CG2R61     CG3C50
    4     3     2	5 ;     CG2R61     CG2R61     CG2R61
    8     3     2	5 ;     CG3C50     CG2R61     CG2R61
    5     4    18	5 ;     OG3R60     CG2R61     CG2R61
    5     4     3	5 ;     OG3R60     CG2R61     CG2R61
   18     4     3	5 ;     CG2R61     CG2R61     CG2R61
    6     5     4	5 ;      CG301     OG3R60     CG2R61
   16     6    17	5 ;      CG331      CG301      CG331
   16     6     5	5 ;      CG331      CG301     OG3R60
   16     6     7	5 ;      CG331      CG301      CG321
   17     6     5	5 ;      CG331      CG301     OG3R60
   17     6     7	5 ;      CG331      CG301      CG321
    5     6     7	5 ;     OG3R60      CG301      CG321
    6     7     8	5 ;      CG301      CG321     CG3C50
    6     7    32	5 ;      CG301      CG321       HGA2
    6     7    33	5 ;      CG301      CG321       HGA2
    8     7    32	5 ;     CG3C50      CG321       HGA2
    8     7    33	5 ;     CG3C50      CG321       HGA2
   32     7    33	5 ;       HGA2      CG321       HGA2
    7     8    14	5 ;      CG321     CG3C50     CG2R53
    7     8     3	5 ;      CG321     CG3C50     CG2R61
    7     8     9	5 ;      CG321     CG3C50      NG3P2
   14     8     3	5 ;     CG2R53     CG3C50     CG2R61
   14     8     9	5 ;     CG2R53     CG3C50      NG3P2
    3     8     9	5 ;     CG2R61     CG3C50      NG3P2
    8     9    11	5 ;     CG3C50      NG3P2     CG3C53
    8     9    10	5 ;     CG3C50      NG3P2       HGP2
    8     9    34	5 ;     CG3C50      NG3P2       HGP2
   11     9    10	5 ;     CG3C53      NG3P2       HGP2
   11     9    34	5 ;     CG3C53      NG3P2       HGP2
   10     9    34	5 ;       HGP2      NG3P2       HGP2
   12    11     9	5 ;     NG2R53     CG3C53      NG3P2
   12    11    20	5 ;     NG2R53     CG3C53      NG3P3
   12    11    35	5 ;     NG2R53     CG3C53       HGA1
    9    11    20	5 ;      NG3P2     CG3C53      NG3P3
    9    11    35	5 ;      NG3P2     CG3C53       HGA1
   20    11    35	5 ;      NG3P3     CG3C53       HGA1
   13    12    14	5 ;      CG331     NG2R53     CG2R53
   13    12    11	5 ;      CG331     NG2R53     CG3C53
   14    12    11	5 ;     CG2R53     NG2R53     CG3C53
   12    13    46	5 ;     NG2R53      CG331       HGA3
   12    13    47	5 ;     NG2R53      CG331       HGA3
   12    13    48	5 ;     NG2R53      CG331       HGA3
   46    13    47	5 ;       HGA3      CG331       HGA3
   46    13    48	5 ;       HGA3      CG331       HGA3
   47    13    48	5 ;       HGA3      CG331       HGA3
   15    14    12	5 ;      OG2D1     CG2R53     NG2R53
   15    14     8	5 ;      OG2D1     CG2R53     CG3C50
   12    14     8	5 ;     NG2R53     CG2R53     CG3C50
    6    16    49	5 ;      CG301      CG331       HGA3
    6    16    50	5 ;      CG301      CG331       HGA3
    6    16    51	5 ;      CG301      CG331       HGA3
   49    16    50	5 ;       HGA3      CG331       HGA3
   49    16    51	5 ;       HGA3      CG331       HGA3
   50    16    51	5 ;       HGA3      CG331       HGA3
    6    17    43	5 ;      CG301      CG331       HGA3
    6    17    44	5 ;      CG301      CG331       HGA3
    6    17    45	5 ;      CG301      CG331       HGA3
   43    17    44	5 ;       HGA3      CG331       HGA3
   43    17    45	5 ;       HGA3      CG331       HGA3
   44    17    45	5 ;       HGA3      CG331       HGA3
    4    18    19	5 ;     CG2R61     CG2R61     CG2R61
    4    18    36	5 ;     CG2R61     CG2R61      HGR61
   19    18    36	5 ;     CG2R61     CG2R61      HGR61
   18    19     1	5 ;     CG2R61     CG2R61     CG2R67
   18    19    37	5 ;     CG2R61     CG2R61      HGR61
    1    19    37	5 ;     CG2R67     CG2R61      HGR61
   11    20    21	5 ;     CG3C53      NG3P3       HGP2
   11    20    22	5 ;     CG3C53      NG3P3       HGP2
   11    20    38	5 ;     CG3C53      NG3P3       HGP2
   21    20    22	5 ;       HGP2      NG3P3       HGP2
   21    20    38	5 ;       HGP2      NG3P3       HGP2
   22    20    38	5 ;       HGP2      NG3P3       HGP2
    1    23    28	5 ;     CG2R67     CG2R67     CG2R61
    1    23    24	5 ;     CG2R67     CG2R67     CG2R61
   28    23    24	5 ;     CG2R61     CG2R67     CG2R61
   23    24    25	5 ;     CG2R67     CG2R61     CG2R61
   23    24    39	5 ;     CG2R67     CG2R61      HGR61
   25    24    39	5 ;     CG2R61     CG2R61      HGR61
   24    25    26	5 ;     CG2R61     CG2R61     CG2R61
   24    25    29	5 ;     CG2R61     CG2R61      SG311
   26    25    29	5 ;     CG2R61     CG2R61      SG311
   27    26    25	5 ;     CG2R61     CG2R61     CG2R61
   27    26    40	5 ;     CG2R61     CG2R61      HGR61
   25    26    40	5 ;     CG2R61     CG2R61      HGR61
   28    27    26	5 ;     CG2R61     CG2R61     CG2R61
   28    27    41	5 ;     CG2R61     CG2R61      HGR61
   26    27    41	5 ;     CG2R61     CG2R61      HGR61
   23    28    27	5 ;     CG2R67     CG2R61     CG2R61
   23    28    42	5 ;     CG2R67     CG2R61      HGR61
   27    28    42	5 ;     CG2R61     CG2R61      HGR61
   25    29    30	5 ;     CG2R61      SG311      CG331
   29    30    52	5 ;      SG311      CG331       HGA3
   29    30    53	5 ;      SG311      CG331       HGA3
   29    30    54	5 ;      SG311      CG331       HGA3
   52    30    53	5 ;       HGA3      CG331       HGA3
   52    30    54	5 ;       HGA3      CG331       HGA3
   53    30    54	5 ;       HGA3      CG331       HGA3

[ dihedrals ]
;	ai	  aj	ak	  al funct			  c0			c1			  c2			c3			  c4			c5
    2     1    19    18	 9 ;     CG2R61     CG2R67     CG2R61     CG2R61
    2     1    19    37	 9 ;     CG2R61     CG2R67     CG2R61      HGR61
   23     1    19    18	 9 ;     CG2R67     CG2R67     CG2R61     CG2R61
   23     1    19    37	 9 ;     CG2R67     CG2R67     CG2R61      HGR61
   19     1     2     3	 9 ;     CG2R61     CG2R67     CG2R61     CG2R61
   19     1     2    31	 9 ;     CG2R61     CG2R67     CG2R61      HGR61
   23     1     2     3	 9 ;     CG2R67     CG2R67     CG2R61     CG2R61
   23     1     2    31	 9 ;     CG2R67     CG2R67     CG2R61      HGR61
   19     1    23    28	 9 ;     CG2R61     CG2R67     CG2R67     CG2R61
   19     1    23    24	 9 ;     CG2R61     CG2R67     CG2R67     CG2R61
    2     1    23    28	 9 ;     CG2R61     CG2R67     CG2R67     CG2R61
    2     1    23    24	 9 ;     CG2R61     CG2R67     CG2R67     CG2R61
    1     2     3     4	 9 ;     CG2R67     CG2R61     CG2R61     CG2R61
    1     2     3     8	 9 ;     CG2R67     CG2R61     CG2R61     CG3C50
   31     2     3     4	 9 ;      HGR61     CG2R61     CG2R61     CG2R61
   31     2     3     8	 9 ;      HGR61     CG2R61     CG2R61     CG3C50
    8     3     4     5	 9 ;     CG3C50     CG2R61     CG2R61     OG3R60
    8     3     4    18	 9 ;     CG3C50     CG2R61     CG2R61     CG2R61
    2     3     4     5	 9 ;     CG2R61     CG2R61     CG2R61     OG3R60
    2     3     4    18	 9 ;     CG2R61     CG2R61     CG2R61     CG2R61
    4     3     8     7	 9 ;     CG2R61     CG2R61     CG3C50      CG321
    4     3     8    14	 9 ;     CG2R61     CG2R61     CG3C50     CG2R53
    4     3     8     9	 9 ;     CG2R61     CG2R61     CG3C50      NG3P2
    2     3     8     7	 9 ;     CG2R61     CG2R61     CG3C50      CG321
    2     3     8    14	 9 ;     CG2R61     CG2R61     CG3C50     CG2R53
    2     3     8     9	 9 ;     CG2R61     CG2R61     CG3C50      NG3P2
   18     4     5     6	 9 ;     CG2R61     CG2R61     OG3R60      CG301
    3     4     5     6	 9 ;     CG2R61     CG2R61     OG3R60      CG301
    5     4    18    19	 9 ;     OG3R60     CG2R61     CG2R61     CG2R61
    5     4    18    36	 9 ;     OG3R60     CG2R61     CG2R61      HGR61
    3     4    18    19	 9 ;     CG2R61     CG2R61     CG2R61     CG2R61
    3     4    18    36	 9 ;     CG2R61     CG2R61     CG2R61      HGR61
    4     5     6    16	 9 ;     CG2R61     OG3R60      CG301      CG331
    4     5     6    17	 9 ;     CG2R61     OG3R60      CG301      CG331
    4     5     6     7	 9 ;     CG2R61     OG3R60      CG301      CG321
   17     6    16    49	 9 ;      CG331      CG301      CG331       HGA3
   17     6    16    50	 9 ;      CG331      CG301      CG331       HGA3
   17     6    16    51	 9 ;      CG331      CG301      CG331       HGA3
    5     6    16    49	 9 ;     OG3R60      CG301      CG331       HGA3
    5     6    16    50	 9 ;     OG3R60      CG301      CG331       HGA3
    5     6    16    51	 9 ;     OG3R60      CG301      CG331       HGA3
    7     6    16    49	 9 ;      CG321      CG301      CG331       HGA3
    7     6    16    50	 9 ;      CG321      CG301      CG331       HGA3
    7     6    16    51	 9 ;      CG321      CG301      CG331       HGA3
   16     6    17    43	 9 ;      CG331      CG301      CG331       HGA3
   16     6    17    44	 9 ;      CG331      CG301      CG331       HGA3
   16     6    17    45	 9 ;      CG331      CG301      CG331       HGA3
    5     6    17    43	 9 ;     OG3R60      CG301      CG331       HGA3
    5     6    17    44	 9 ;     OG3R60      CG301      CG331       HGA3
    5     6    17    45	 9 ;     OG3R60      CG301      CG331       HGA3
    7     6    17    43	 9 ;      CG321      CG301      CG331       HGA3
    7     6    17    44	 9 ;      CG321      CG301      CG331       HGA3
    7     6    17    45	 9 ;      CG321      CG301      CG331       HGA3
   16     6     7     8	 9 ;      CG331      CG301      CG321     CG3C50
   16     6     7    32	 9 ;      CG331      CG301      CG321       HGA2
   16     6     7    33	 9 ;      CG331      CG301      CG321       HGA2
   17     6     7     8	 9 ;      CG331      CG301      CG321     CG3C50
   17     6     7    32	 9 ;      CG331      CG301      CG321       HGA2
   17     6     7    33	 9 ;      CG331      CG301      CG321       HGA2
    5     6     7     8	 9 ;     OG3R60      CG301      CG321     CG3C50
    5     6     7    32	 9 ;     OG3R60      CG301      CG321       HGA2
    5     6     7    33	 9 ;     OG3R60      CG301      CG321       HGA2
    6     7     8    14	 9 ;      CG301      CG321     CG3C50     CG2R53
    6     7     8     3	 9 ;      CG301      CG321     CG3C50     CG2R61
    6     7     8     9	 9 ;      CG301      CG321     CG3C50      NG3P2
   32     7     8    14	 9 ;       HGA2      CG321     CG3C50     CG2R53
   32     7     8     3	 9 ;       HGA2      CG321     CG3C50     CG2R61
   32     7     8     9	 9 ;       HGA2      CG321     CG3C50      NG3P2
   33     7     8    14	 9 ;       HGA2      CG321     CG3C50     CG2R53
   33     7     8     3	 9 ;       HGA2      CG321     CG3C50     CG2R61
   33     7     8     9	 9 ;       HGA2      CG321     CG3C50      NG3P2
    7     8    14    15	 9 ;      CG321     CG3C50     CG2R53      OG2D1
    7     8    14    12	 9 ;      CG321     CG3C50     CG2R53     NG2R53
    3     8    14    15	 9 ;     CG2R61     CG3C50     CG2R53      OG2D1
    3     8    14    12	 9 ;     CG2R61     CG3C50     CG2R53     NG2R53
    9     8    14    15	 9 ;      NG3P2     CG3C50     CG2R53      OG2D1
    9     8    14    12	 9 ;      NG3P2     CG3C50     CG2R53     NG2R53
    7     8     9    11	 9 ;      CG321     CG3C50      NG3P2     CG3C53
    7     8     9    10	 9 ;      CG321     CG3C50      NG3P2       HGP2
    7     8     9    34	 9 ;      CG321     CG3C50      NG3P2       HGP2
   14     8     9    11	 9 ;     CG2R53     CG3C50      NG3P2     CG3C53
   14     8     9    10	 9 ;     CG2R53     CG3C50      NG3P2       HGP2
   14     8     9    34	 9 ;     CG2R53     CG3C50      NG3P2       HGP2
    3     8     9    11	 9 ;     CG2R61     CG3C50      NG3P2     CG3C53
    3     8     9    10	 9 ;     CG2R61     CG3C50      NG3P2       HGP2
    3     8     9    34	 9 ;     CG2R61     CG3C50      NG3P2       HGP2
    8     9    11    12	 9 ;     CG3C50      NG3P2     CG3C53     NG2R53
    8     9    11    20	 9 ;     CG3C50      NG3P2     CG3C53      NG3P3
    8     9    11    35	 9 ;     CG3C50      NG3P2     CG3C53       HGA1
   10     9    11    12	 9 ;       HGP2      NG3P2     CG3C53     NG2R53
   10     9    11    20	 9 ;       HGP2      NG3P2     CG3C53      NG3P3
   10     9    11    35	 9 ;       HGP2      NG3P2     CG3C53       HGA1
   34     9    11    12	 9 ;       HGP2      NG3P2     CG3C53     NG2R53
   34     9    11    20	 9 ;       HGP2      NG3P2     CG3C53      NG3P3
   34     9    11    35	 9 ;       HGP2      NG3P2     CG3C53       HGA1
    9    11    12    13	 9 ;      NG3P2     CG3C53     NG2R53      CG331
    9    11    12    14	 9 ;      NG3P2     CG3C53     NG2R53     CG2R53
   20    11    12    13	 9 ;      NG3P3     CG3C53     NG2R53      CG331
   20    11    12    14	 9 ;      NG3P3     CG3C53     NG2R53     CG2R53
   35    11    12    13	 9 ;       HGA1     CG3C53     NG2R53      CG331
   35    11    12    14	 9 ;       HGA1     CG3C53     NG2R53     CG2R53
   12    11    20    21	 9 ;     NG2R53     CG3C53      NG3P3       HGP2
   12    11    20    22	 9 ;     NG2R53     CG3C53      NG3P3       HGP2
   12    11    20    38	 9 ;     NG2R53     CG3C53      NG3P3       HGP2
    9    11    20    21	 9 ;      NG3P2     CG3C53      NG3P3       HGP2
    9    11    20    22	 9 ;      NG3P2     CG3C53      NG3P3       HGP2
    9    11    20    38	 9 ;      NG3P2     CG3C53      NG3P3       HGP2
   35    11    20    21	 9 ;       HGA1     CG3C53      NG3P3       HGP2
   35    11    20    22	 9 ;       HGA1     CG3C53      NG3P3       HGP2
   35    11    20    38	 9 ;       HGA1     CG3C53      NG3P3       HGP2
   14    12    13    46	 9 ;     CG2R53     NG2R53      CG331       HGA3
   14    12    13    47	 9 ;     CG2R53     NG2R53      CG331       HGA3
   14    12    13    48	 9 ;     CG2R53     NG2R53      CG331       HGA3
   11    12    13    46	 9 ;     CG3C53     NG2R53      CG331       HGA3
   11    12    13    47	 9 ;     CG3C53     NG2R53      CG331       HGA3
   11    12    13    48	 9 ;     CG3C53     NG2R53      CG331       HGA3
   13    12    14    15	 9 ;      CG331     NG2R53     CG2R53      OG2D1
   13    12    14     8	 9 ;      CG331     NG2R53     CG2R53     CG3C50
   11    12    14    15	 9 ;     CG3C53     NG2R53     CG2R53      OG2D1
   11    12    14     8	 9 ;     CG3C53     NG2R53     CG2R53     CG3C50
    4    18    19     1	 9 ;     CG2R61     CG2R61     CG2R61     CG2R67
    4    18    19    37	 9 ;     CG2R61     CG2R61     CG2R61      HGR61
   36    18    19     1	 9 ;      HGR61     CG2R61     CG2R61     CG2R67
   36    18    19    37	 9 ;      HGR61     CG2R61     CG2R61      HGR61
    1    23    28    27	 9 ;     CG2R67     CG2R67     CG2R61     CG2R61
    1    23    28    42	 9 ;     CG2R67     CG2R67     CG2R61      HGR61
   24    23    28    27	 9 ;     CG2R61     CG2R67     CG2R61     CG2R61
   24    23    28    42	 9 ;     CG2R61     CG2R67     CG2R61      HGR61
    1    23    24    25	 9 ;     CG2R67     CG2R67     CG2R61     CG2R61
    1    23    24    39	 9 ;     CG2R67     CG2R67     CG2R61      HGR61
   28    23    24    25	 9 ;     CG2R61     CG2R67     CG2R61     CG2R61
   28    23    24    39	 9 ;     CG2R61     CG2R67     CG2R61      HGR61
   23    24    25    26	 9 ;     CG2R67     CG2R61     CG2R61     CG2R61
   23    24    25    29	 9 ;     CG2R67     CG2R61     CG2R61      SG311
   39    24    25    26	 9 ;      HGR61     CG2R61     CG2R61     CG2R61
   39    24    25    29	 9 ;      HGR61     CG2R61     CG2R61      SG311
   24    25    26    27	 9 ;     CG2R61     CG2R61     CG2R61     CG2R61
   24    25    26    40	 9 ;     CG2R61     CG2R61     CG2R61      HGR61
   29    25    26    27	 9 ;      SG311     CG2R61     CG2R61     CG2R61
   29    25    26    40	 9 ;      SG311     CG2R61     CG2R61      HGR61
   24    25    29    30	 9 ;     CG2R61     CG2R61      SG311      CG331
   26    25    29    30	 9 ;     CG2R61     CG2R61      SG311      CG331
   25    26    27    28	 9 ;     CG2R61     CG2R61     CG2R61     CG2R61
   25    26    27    41	 9 ;     CG2R61     CG2R61     CG2R61      HGR61
   40    26    27    28	 9 ;      HGR61     CG2R61     CG2R61     CG2R61
   40    26    27    41	 9 ;      HGR61     CG2R61     CG2R61      HGR61
   26    27    28    23	 9 ;     CG2R61     CG2R61     CG2R61     CG2R67
   26    27    28    42	 9 ;     CG2R61     CG2R61     CG2R61      HGR61
   41    27    28    23	 9 ;      HGR61     CG2R61     CG2R61     CG2R67
   41    27    28    42	 9 ;      HGR61     CG2R61     CG2R61      HGR61
   25    29    30    52	 9 ;     CG2R61      SG311      CG331       HGA3
   25    29    30    53	 9 ;     CG2R61      SG311      CG331       HGA3
   25    29    30    54	 9 ;     CG2R61      SG311      CG331       HGA3

[ dihedrals ]
;	ai	  aj	ak	  al funct			  c0			c1			  c2			c3
   14     8    12    15	 2

