Gravel Rubs Often Many Awfully Cauterized Sores
   68
    1LIG     N1    1  -1.812   0.539  -1.537
    1LIG     H1    2  -1.868   0.520  -1.622
    1LIG     H2    3  -1.720   0.566  -1.573
    1LIG     C1    4  -1.878   0.661  -1.475
    1LIG     C2    5  -1.771   0.773  -1.470
    1LIG     O1    6  -1.729   0.779  -1.333
    1LIG     H3    7  -1.787   0.840  -1.283
    1LIG     C3    8  -1.653   0.755  -1.571
    1LIG     N2    9  -1.681   0.830  -1.695
    1LIG     C4   10  -1.713   0.767  -1.813
    1LIG     O2   11  -1.726   0.645  -1.820
    1LIG     C5   12  -1.749   0.861  -1.924
    1LIG     H4   13  -1.668   0.931  -1.696
    1LIG     C6   14  -1.519   0.805  -1.508
    1LIG     C7   15  -1.388   0.748  -1.560
    1LIG     C8   16  -1.392   0.642  -1.652
    1LIG     C9   17  -1.274   0.592  -1.708
    1LIG     F1   18  -1.281   0.492  -1.796
    1LIG    C10   19  -1.151   0.646  -1.675
    1LIG    C11   20  -1.147   0.752  -1.585
    1LIG    C12   21  -1.264   0.804  -1.528
    1LIG     F2   22  -1.029   0.807  -1.553
    1LIG    C13   23  -1.792   0.408  -1.459
    1LIG    C14   24  -1.913   0.315  -1.487
    1LIG    C15   25  -1.906   0.188  -1.401
    1LIG    C16   26  -1.903   0.220  -1.252
    1LIG    C17   27  -1.793   0.319  -1.216
    1LIG    C18   28  -1.791   0.442  -1.307
    1LIG    C19   29  -1.660   0.348  -1.513
    1LIG    C20   30  -1.537   0.384  -1.452
    1LIG    C21   31  -1.414   0.324  -1.488
    1LIG    C22   32  -1.414   0.232  -1.594
    1LIG    C23   33  -1.533   0.196  -1.657
    1LIG    C24   34  -1.654   0.251  -1.614
    1LIG    C25   35  -1.292   0.349  -1.412
    1LIG     O3   36  -1.214   0.239  -1.385
    1LIG    C26   37  -1.102   0.284  -1.324
    1LIG    C27   38  -1.105   0.420  -1.310
    1LIG    C28   39  -1.229   0.462  -1.365
    1LIG    HC2   40  -1.913   0.638  -1.375
    1LIG    HC3   41  -1.962   0.693  -1.537
    1LIG     HC   42  -1.820   0.867  -1.494
    1LIG    HC1   43  -1.643   0.650  -1.596
    1LIG    HC4   44  -1.774   0.803  -2.014
    1LIG    HC5   45  -1.664   0.926  -1.945
    1LIG    HC6   46  -1.835   0.921  -1.895
    1LIG    HC7   47  -1.515   0.913  -1.523
    1LIG    HC8   48  -1.524   0.785  -1.401
    1LIG    HC9   49  -1.486   0.599  -1.680
    1LIG   HC10   50  -1.060   0.607  -1.717
    1LIG   HC11   51  -1.258   0.887  -1.460
    1LIG   HC12   52  -1.913   0.287  -1.592
    1LIG   HC13   53  -2.005   0.368  -1.464
    1LIG   HC14   54  -1.993   0.126  -1.423
    1LIG   HC15   55  -1.816   0.132  -1.428
    1LIG   HC16   56  -1.887   0.128  -1.197
    1LIG   HC17   57  -1.999   0.263  -1.224
    1LIG   HC18   58  -1.808   0.352  -1.113
    1LIG   HC19   59  -1.696   0.268  -1.223
    1LIG   HC20   60  -1.701   0.500  -1.286
    1LIG   HC21   61  -1.878   0.503  -1.285
    1LIG   HC22   62  -1.537   0.460  -1.376
    1LIG   HC23   63  -1.321   0.189  -1.627
    1LIG   HC24   64  -1.531   0.126  -1.738
    1LIG   HC25   65  -1.746   0.218  -1.660
    1LIG   HC26   66  -1.021   0.221  -1.290
    1LIG   HC27   67  -1.029   0.483  -1.267
    1LIG   HC28   68  -1.266   0.563  -1.370
   0.00000   0.00000   0.00000
