Glycine aRginine prOline Methionine Alanine Cystine Serine
   48
    1LIG     C2    1  -1.440   0.628  -1.713
    1LIG     O5    2  -1.176   0.563  -1.747
    1LIG     C4    3  -1.208   0.337  -1.687
    1LIG     C5    4  -1.299   0.235  -1.658
    1LIG     C6    5  -1.072   0.307  -1.704
    1LIG     C7    6  -1.253   0.103  -1.646
    1LIG     C8    7  -1.027   0.175  -1.691
    1LIG     C9    8  -1.117   0.072  -1.663
    1LIG    C10    9  -1.395   0.509  -1.669
    1LIG    C11   10  -1.469   0.406  -1.589
    1LIG    C12   11  -1.253   0.477  -1.705
    1LIG    C13   12  -1.446   0.265  -1.644
    1LIG     N1   13  -1.574   0.794  -1.606
    1LIG     O4   14  -1.678   0.638  -1.736
    1LIG     C3   15  -1.576   0.685  -1.689
    1LIG     H4   16  -1.490   0.812  -1.551
    1LIG    C14   17  -1.699   0.852  -1.555
    1LIG    C16   18  -1.704   1.004  -1.583
    1LIG    C17   19  -1.613   1.081  -1.487
    1LIG    C18   20  -1.664   1.037  -1.727
    1LIG     O2   21  -1.798   0.843  -1.332
    1LIG    C15   22  -1.701   0.824  -1.404
    1LIG     O3   23  -1.581   0.772  -1.363
    1LIG    C19   24  -1.593   0.649  -1.293
    1LIG     C1   25  -0.956  -0.092  -1.603
    1LIG     O1   26  -1.087  -0.060  -1.649
    1LIG     H1   27  -1.375   0.686  -1.769
    1LIG     H2   28  -1.005   0.382  -1.726
    1LIG     H3   29  -1.319   0.027  -1.626
    1LIG     H5   30  -0.926   0.153  -1.703
    1LIG     H6   31  -1.573   0.427  -1.592
    1LIG     H7   32  -1.431   0.409  -1.489
    1LIG     H8   33  -1.490   0.194  -1.577
    1LIG     H9   34  -1.490   0.259  -1.741
    1LIG    H10   35  -1.784   0.809  -1.603
    1LIG    H11   36  -1.806   1.034  -1.567
    1LIG    H12   37  -1.511   1.051  -1.503
    1LIG    H13   38  -1.641   1.060  -1.386
    1LIG    H14   39  -1.622   1.186  -1.505
    1LIG    H15   40  -1.563   1.008  -1.744
    1LIG    H16   41  -1.674   1.143  -1.743
    1LIG    H17   42  -1.728   0.985  -1.795
    1LIG    H18   43  -1.495   0.615  -1.264
    1LIG    H19   44  -1.638   0.576  -1.356
    1LIG    H20   45  -1.653   0.663  -1.206
    1LIG    H21   46  -0.945  -0.198  -1.597
    1LIG    H22   47  -0.940  -0.048  -1.507
    1LIG    H23   48  -0.883  -0.053  -1.672
   0.00000   0.00000   0.00000
