Gallium Rubidium Oxygen Manganese Argon Carbon Silicon
   66
    1LIG     C1    1  -1.585   0.628  -1.511
    1LIG     C2    2  -1.699   0.679  -1.421
    1LIG     N1    3  -1.758   0.791  -1.500
    1LIG     C3    4  -1.644   0.858  -1.573
    1LIG     C4    5  -1.525   0.761  -1.564
    1LIG     H1    6  -1.825   0.751  -1.568
    1LIG     H2    7  -1.813   0.856  -1.441
    1LIG     C5    8  -1.640   0.525  -1.609
    1LIG     C6    9  -1.750   0.562  -1.691
    1LIG     C7   10  -1.815   0.472  -1.773
    1LIG     C8   11  -1.772   0.340  -1.777
    1LIG     C9   12  -1.664   0.301  -1.699
    1LIG    C10   13  -1.592   0.390  -1.615
    1LIG    C11   14  -1.468   0.337  -1.549
    1LIG    C12   15  -1.405   0.222  -1.604
    1LIG    C13   16  -1.283   0.172  -1.555
    1LIG    C14   17  -1.219   0.238  -1.452
    1LIG    C15   18  -1.281   0.346  -1.389
    1LIG    C16   19  -1.407   0.392  -1.435
    1LIG      S   20  -1.052   0.200  -1.404
    1LIG     O1   21  -0.985   0.327  -1.389
    1LIG     O2   22  -1.063   0.106  -1.294
    1LIG    C17   23  -0.977   0.116  -1.542
    1LIG    C18   24  -1.440   0.757  -1.691
    1LIG     O3   25  -1.494   0.784  -1.799
    1LIG     N2   26  -1.305   0.727  -1.681
    1LIG    C19   27  -1.229   0.711  -1.557
    1LIG    C20   28  -1.217   0.735  -1.802
    1LIG    C21   29  -1.106   0.803  -1.546
    1LIG     O4   30  -1.043   0.846  -1.668
    1LIG    C22   31  -1.133   0.863  -1.779
    1LIG    C23   32  -1.131   0.608  -1.815
    1LIG    C24   33  -1.017   0.609  -1.897
    1LIG    C25   34  -0.957   0.489  -1.938
    1LIG    C26   35  -1.006   0.367  -1.892
    1LIG    C27   36  -1.111   0.365  -1.800
    1LIG    C28   37  -1.171   0.484  -1.761
    1LIG     HC   38  -1.510   0.580  -1.448
    1LIG    HC2   39  -1.772   0.600  -1.404
    1LIG    HC3   40  -1.659   0.716  -1.327
    1LIG    HC4   41  -1.671   0.876  -1.677
    1LIG    HC5   42  -1.619   0.952  -1.524
    1LIG    HC1   43  -1.461   0.799  -1.485
    1LIG    HC6   44  -1.785   0.665  -1.689
    1LIG    HC7   45  -1.898   0.503  -1.834
    1LIG    HC8   46  -1.823   0.269  -1.840
    1LIG    HC9   47  -1.632   0.198  -1.703
    1LIG   HC10   48  -1.452   0.172  -1.686
    1LIG   HC11   49  -1.241   0.082  -1.597
    1LIG   HC12   50  -1.234   0.395  -1.306
    1LIG   HC13   51  -1.457   0.471  -1.382
    1LIG   HC14   52  -0.870   0.104  -1.523
    1LIG   HC15   53  -0.991   0.175  -1.632
    1LIG   HC16   54  -1.023   0.018  -1.554
    1LIG   HC17   55  -1.295   0.733  -1.473
    1LIG   HC18   56  -1.196   0.607  -1.550
    1LIG   HC19   57  -1.278   0.748  -1.891
    1LIG   HC20   58  -1.030   0.749  -1.488
    1LIG   HC21   59  -1.135   0.892  -1.490
    1LIG   HC22   60  -1.074   0.883  -1.869
    1LIG   HC23   61  -1.199   0.947  -1.759
    1LIG   HC24   62  -0.975   0.703  -1.929
    1LIG   HC25   63  -0.873   0.491  -2.005
    1LIG   HC26   64  -0.963   0.275  -1.927
    1LIG   HC27   65  -1.145   0.271  -1.760
    1LIG   HC28   66  -1.250   0.482  -1.687
   0.00000   0.00000   0.00000
