; Created by cgenff_charmm2gmx.py

[ moleculetype ]
; Name			   nrexcl
LIG				 3

[ atoms ]
;	 nr		  type	resnr residue  atom   cgnr	   charge		mass  typeB    chargeB		massB
; residue	 1 LIG rtp LIG q	qsum
     1     CG3C51      1    LIG     C1      1      0.035     12.011   ;
     2     CG3C54      1    LIG     C2      2     -0.479     12.011   ;
     3      NG3P2      1    LIG     N1      3     -0.162     14.007   ;
     4     CG3C54      1    LIG     C3      4     -0.476     12.011   ;
     5     CG3C51      1    LIG     C4      5     -0.067     12.011   ;
     6       HGP2      1    LIG     H1      6      0.338      1.008   ;
     7       HGP2      1    LIG     H2      7      0.338      1.008   ;
     8     CG2R61      1    LIG     C5      8     -0.015     12.011   ;
     9     CG2R61      1    LIG     C6      9     -0.097     12.011   ;
    10     CG2R61      1    LIG     C7     10     -0.106     12.011   ;
    11     CG2R61      1    LIG     C8     11     -0.119     12.011   ;
    12     CG2R61      1    LIG     C9     12     -0.116     12.011   ;
    13     CG2R67      1    LIG    C10     13      0.027     12.011   ;
    14     CG2R67      1    LIG    C11     14      0.012     12.011   ;
    15     CG2R61      1    LIG    C12     15     -0.116     12.011   ;
    16     CG2R61      1    LIG    C13     16     -0.105     12.011   ;
    17     CG2R61      1    LIG    C14     17      0.200     12.011   ;
    18     CG2R61      1    LIG    C15     18     -0.105     12.011   ;
    19     CG2R61      1    LIG    C16     19     -0.116     12.011   ;
    20      SG3O2      1    LIG      S     20      0.116     32.060   ;
    21      OG2P1      1    LIG     O1     21     -0.369     15.999   ;
    22      OG2P1      1    LIG     O2     22     -0.369     15.999   ;
    23      CG331      1    LIG    C17     23      0.124     12.011   ;
    24      CG2O1      1    LIG    C18     24      0.653     12.011   ;
    25      OG2D1      1    LIG     O3     25     -0.558     15.999   ;
    26      NG2S0      1    LIG     N2     26     -0.307     14.007   ;
    27      CG321      1    LIG    C19     27      0.111     12.011   ;
    28      CG311      1    LIG    C20     28      0.052     12.011   ;
    29      CG321      1    LIG    C21     29     -0.079     12.011   ;
    30     OG3C61      1    LIG     O4     30     -0.429     15.999   ;
    31      CG321      1    LIG    C22     31      0.003     12.011   ;
    32     CG2R61      1    LIG    C23     32     -0.025     12.011   ;
    33     CG2R61      1    LIG    C24     33     -0.085     12.011   ;
    34     CG2R61      1    LIG    C25     34     -0.114     12.011   ;
    35     CG2R61      1    LIG    C26     35     -0.116     12.011   ;
    36     CG2R61      1    LIG    C27     36     -0.114     12.011   ;
    37     CG2R61      1    LIG    C28     37     -0.085     12.011   ;
    38       HGA1      1    LIG     HC     38      0.090      1.008   ;
    39       HGA2      1    LIG    HC2     39      0.286      1.008   ;
    40       HGA2      1    LIG    HC3     40      0.286      1.008   ;
    41       HGA2      1    LIG    HC4     41      0.280      1.008   ;
    42       HGA2      1    LIG    HC5     42      0.280      1.008   ;
    43       HGA1      1    LIG    HC1     43      0.090      1.008   ;
    44      HGR61      1    LIG    HC6     44      0.116      1.008   ;
    45      HGR61      1    LIG    HC7     45      0.116      1.008   ;
    46      HGR61      1    LIG    HC8     46      0.116      1.008   ;
    47      HGR61      1    LIG    HC9     47      0.116      1.008   ;
    48      HGR61      1    LIG   HC10     48      0.116      1.008   ;
    49      HGR61      1    LIG   HC11     49      0.116      1.008   ;
    50      HGR61      1    LIG   HC12     50      0.116      1.008   ;
    51      HGR61      1    LIG   HC13     51      0.116      1.008   ;
    52       HGA3      1    LIG   HC14     52      0.090      1.008   ;
    53       HGA3      1    LIG   HC15     53      0.090      1.008   ;
    54       HGA3      1    LIG   HC16     54      0.090      1.008   ;
    55       HGA2      1    LIG   HC17     55      0.090      1.008   ;
    56       HGA2      1    LIG   HC18     56      0.090      1.008   ;
    57       HGA1      1    LIG   HC19     57      0.090      1.008   ;
    58       HGA2      1    LIG   HC20     58      0.090      1.008   ;
    59       HGA2      1    LIG   HC21     59      0.090      1.008   ;
    60       HGA2      1    LIG   HC22     60      0.090      1.008   ;
    61       HGA2      1    LIG   HC23     61      0.090      1.008   ;
    62      HGR61      1    LIG   HC24     62      0.116      1.008   ;
    63      HGR61      1    LIG   HC25     63      0.116      1.008   ;
    64      HGR61      1    LIG   HC26     64      0.116      1.008   ;
    65      HGR61      1    LIG   HC27     65      0.116      1.008   ;
    66      HGR61      1    LIG   HC28     66      0.116      1.008   ;

[ bonds ]
;	ai	  aj funct			  c0			c1			  c2			c3
    1     5	 1 ;      CG3C51     CG3C51
    1     8	 1 ;      CG3C51     CG2R61
    1     2	 1 ;      CG3C51     CG3C54
    1    38	 1 ;      CG3C51       HGA1
    2     3	 1 ;      CG3C54      NG3P2
    2    39	 1 ;      CG3C54       HGA2
    2    40	 1 ;      CG3C54       HGA2
    3     4	 1 ;       NG3P2     CG3C54
    3     6	 1 ;       NG3P2       HGP2
    3     7	 1 ;       NG3P2       HGP2
    4     5	 1 ;      CG3C54     CG3C51
    4    41	 1 ;      CG3C54       HGA2
    4    42	 1 ;      CG3C54       HGA2
    5    24	 1 ;      CG3C51      CG2O1
    5    43	 1 ;      CG3C51       HGA1
    8     9	 1 ;      CG2R61     CG2R61
    8    13	 1 ;      CG2R61     CG2R67
    9    10	 1 ;      CG2R61     CG2R61
    9    44	 1 ;      CG2R61      HGR61
   10    11	 1 ;      CG2R61     CG2R61
   10    45	 1 ;      CG2R61      HGR61
   11    12	 1 ;      CG2R61     CG2R61
   11    46	 1 ;      CG2R61      HGR61
   12    13	 1 ;      CG2R61     CG2R67
   12    47	 1 ;      CG2R61      HGR61
   13    14	 1 ;      CG2R67     CG2R67
   14    15	 1 ;      CG2R67     CG2R61
   14    19	 1 ;      CG2R67     CG2R61
   15    16	 1 ;      CG2R61     CG2R61
   15    48	 1 ;      CG2R61      HGR61
   16    17	 1 ;      CG2R61     CG2R61
   16    49	 1 ;      CG2R61      HGR61
   17    20	 1 ;      CG2R61      SG3O2
   17    18	 1 ;      CG2R61     CG2R61
   18    19	 1 ;      CG2R61     CG2R61
   18    50	 1 ;      CG2R61      HGR61
   19    51	 1 ;      CG2R61      HGR61
   20    23	 1 ;       SG3O2      CG331
   20    21	 1 ;       SG3O2      OG2P1
   20    22	 1 ;       SG3O2      OG2P1
   23    52	 1 ;       CG331       HGA3
   23    53	 1 ;       CG331       HGA3
   23    54	 1 ;       CG331       HGA3
   24    26	 1 ;       CG2O1      NG2S0
   24    25	 1 ;       CG2O1      OG2D1
   26    28	 1 ;       NG2S0      CG311
   26    27	 1 ;       NG2S0      CG321
   27    29	 1 ;       CG321      CG321
   27    55	 1 ;       CG321       HGA2
   27    56	 1 ;       CG321       HGA2
   28    31	 1 ;       CG311      CG321
   28    32	 1 ;       CG311     CG2R61
   28    57	 1 ;       CG311       HGA1
   29    30	 1 ;       CG321     OG3C61
   29    58	 1 ;       CG321       HGA2
   29    59	 1 ;       CG321       HGA2
   30    31	 1 ;      OG3C61      CG321
   31    60	 1 ;       CG321       HGA2
   31    61	 1 ;       CG321       HGA2
   32    33	 1 ;      CG2R61     CG2R61
   32    37	 1 ;      CG2R61     CG2R61
   33    34	 1 ;      CG2R61     CG2R61
   33    62	 1 ;      CG2R61      HGR61
   34    35	 1 ;      CG2R61     CG2R61
   34    63	 1 ;      CG2R61      HGR61
   35    36	 1 ;      CG2R61     CG2R61
   35    64	 1 ;      CG2R61      HGR61
   36    37	 1 ;      CG2R61     CG2R61
   36    65	 1 ;      CG2R61      HGR61
   37    66	 1 ;      CG2R61      HGR61

[ pairs ]
;	ai	  aj funct			  c0			c1			  c2			c3
    1     6	 1
    1     7	 1
    1    41	 1
    1    42	 1
    1    26	 1
    1    25	 1
    1    10	 1
    1    44	 1
    1    14	 1
    1    12	 1
    2    24	 1
    2    43	 1
    2     9	 1
    2    13	 1
    2    41	 1
    2    42	 1
    3     8	 1
    3    38	 1
    3    24	 1
    3    43	 1
    4     8	 1
    4    38	 1
    4    39	 1
    4    40	 1
    4    26	 1
    4    25	 1
    5     9	 1
    5    13	 1
    5    39	 1
    5    40	 1
    5     6	 1
    5     7	 1
    5    28	 1
    5    27	 1
    6    39	 1
    6    40	 1
    6    41	 1
    6    42	 1
    7    39	 1
    7    40	 1
    7    41	 1
    7    42	 1
    8    24	 1
    8    43	 1
    8    39	 1
    8    40	 1
    8    11	 1
    8    45	 1
    8    47	 1
    8    15	 1
    8    19	 1
    9    38	 1
    9    14	 1
    9    12	 1
    9    46	 1
   10    13	 1
   10    47	 1
   11    44	 1
   11    14	 1
   12    45	 1
   12    15	 1
   12    19	 1
   13    38	 1
   13    44	 1
   13    46	 1
   13    16	 1
   13    48	 1
   13    18	 1
   13    51	 1
   14    47	 1
   14    17	 1
   14    49	 1
   14    50	 1
   15    18	 1
   15    51	 1
   15    20	 1
   16    19	 1
   16    23	 1
   16    21	 1
   16    22	 1
   16    50	 1
   17    48	 1
   17    51	 1
   17    52	 1
   17    53	 1
   17    54	 1
   18    49	 1
   18    23	 1
   18    21	 1
   18    22	 1
   19    48	 1
   19    20	 1
   20    49	 1
   20    50	 1
   21    52	 1
   21    53	 1
   21    54	 1
   22    52	 1
   22    53	 1
   22    54	 1
   24    38	 1
   24    41	 1
   24    42	 1
   24    31	 1
   24    32	 1
   24    57	 1
   24    29	 1
   24    55	 1
   24    56	 1
   25    43	 1
   25    28	 1
   25    27	 1
   26    43	 1
   26    30	 1
   26    58	 1
   26    59	 1
   26    60	 1
   26    61	 1
   26    33	 1
   26    37	 1
   27    31	 1
   27    32	 1
   27    57	 1
   28    29	 1
   28    55	 1
   28    56	 1
   28    34	 1
   28    62	 1
   28    36	 1
   28    66	 1
   29    60	 1
   29    61	 1
   30    55	 1
   30    56	 1
   30    32	 1
   30    57	 1
   31    33	 1
   31    37	 1
   31    58	 1
   31    59	 1
   32    60	 1
   32    61	 1
   32    35	 1
   32    63	 1
   32    65	 1
   33    57	 1
   33    36	 1
   33    66	 1
   33    64	 1
   34    37	 1
   34    65	 1
   35    62	 1
   35    66	 1
   36    63	 1
   37    57	 1
   37    62	 1
   37    64	 1
   38    43	 1
   38    39	 1
   38    40	 1
   41    43	 1
   42    43	 1
   44    45	 1
   45    46	 1
   46    47	 1
   48    49	 1
   50    51	 1
   55    58	 1
   55    59	 1
   56    58	 1
   56    59	 1
   57    60	 1
   57    61	 1
   62    63	 1
   63    64	 1
   64    65	 1
   65    66	 1

[ angles ]
;	ai	  aj	ak funct			c0			  c1			c2			  c3
    5     1     8	5 ;     CG3C51     CG3C51     CG2R61
    5     1     2	5 ;     CG3C51     CG3C51     CG3C54
    5     1    38	5 ;     CG3C51     CG3C51       HGA1
    8     1     2	5 ;     CG2R61     CG3C51     CG3C54
    8     1    38	5 ;     CG2R61     CG3C51       HGA1
    2     1    38	5 ;     CG3C54     CG3C51       HGA1
    1     2     3	5 ;     CG3C51     CG3C54      NG3P2
    1     2    39	5 ;     CG3C51     CG3C54       HGA2
    1     2    40	5 ;     CG3C51     CG3C54       HGA2
    3     2    39	5 ;      NG3P2     CG3C54       HGA2
    3     2    40	5 ;      NG3P2     CG3C54       HGA2
   39     2    40	5 ;       HGA2     CG3C54       HGA2
    4     3     6	5 ;     CG3C54      NG3P2       HGP2
    4     3     7	5 ;     CG3C54      NG3P2       HGP2
    4     3     2	5 ;     CG3C54      NG3P2     CG3C54
    6     3     7	5 ;       HGP2      NG3P2       HGP2
    6     3     2	5 ;       HGP2      NG3P2     CG3C54
    7     3     2	5 ;       HGP2      NG3P2     CG3C54
    5     4     3	5 ;     CG3C51     CG3C54      NG3P2
    5     4    41	5 ;     CG3C51     CG3C54       HGA2
    5     4    42	5 ;     CG3C51     CG3C54       HGA2
    3     4    41	5 ;      NG3P2     CG3C54       HGA2
    3     4    42	5 ;      NG3P2     CG3C54       HGA2
   41     4    42	5 ;       HGA2     CG3C54       HGA2
   24     5     4	5 ;      CG2O1     CG3C51     CG3C54
   24     5     1	5 ;      CG2O1     CG3C51     CG3C51
   24     5    43	5 ;      CG2O1     CG3C51       HGA1
    4     5     1	5 ;     CG3C54     CG3C51     CG3C51
    4     5    43	5 ;     CG3C54     CG3C51       HGA1
    1     5    43	5 ;     CG3C51     CG3C51       HGA1
    9     8     1	5 ;     CG2R61     CG2R61     CG3C51
    9     8    13	5 ;     CG2R61     CG2R61     CG2R67
    1     8    13	5 ;     CG3C51     CG2R61     CG2R67
    8     9    10	5 ;     CG2R61     CG2R61     CG2R61
    8     9    44	5 ;     CG2R61     CG2R61      HGR61
   10     9    44	5 ;     CG2R61     CG2R61      HGR61
    9    10    11	5 ;     CG2R61     CG2R61     CG2R61
    9    10    45	5 ;     CG2R61     CG2R61      HGR61
   11    10    45	5 ;     CG2R61     CG2R61      HGR61
   10    11    12	5 ;     CG2R61     CG2R61     CG2R61
   10    11    46	5 ;     CG2R61     CG2R61      HGR61
   12    11    46	5 ;     CG2R61     CG2R61      HGR61
   13    12    11	5 ;     CG2R67     CG2R61     CG2R61
   13    12    47	5 ;     CG2R67     CG2R61      HGR61
   11    12    47	5 ;     CG2R61     CG2R61      HGR61
   14    13     8	5 ;     CG2R67     CG2R67     CG2R61
   14    13    12	5 ;     CG2R67     CG2R67     CG2R61
    8    13    12	5 ;     CG2R61     CG2R67     CG2R61
   15    14    13	5 ;     CG2R61     CG2R67     CG2R67
   15    14    19	5 ;     CG2R61     CG2R67     CG2R61
   13    14    19	5 ;     CG2R67     CG2R67     CG2R61
   16    15    14	5 ;     CG2R61     CG2R61     CG2R67
   16    15    48	5 ;     CG2R61     CG2R61      HGR61
   14    15    48	5 ;     CG2R67     CG2R61      HGR61
   17    16    15	5 ;     CG2R61     CG2R61     CG2R61
   17    16    49	5 ;     CG2R61     CG2R61      HGR61
   15    16    49	5 ;     CG2R61     CG2R61      HGR61
   20    17    16	5 ;      SG3O2     CG2R61     CG2R61
   20    17    18	5 ;      SG3O2     CG2R61     CG2R61
   16    17    18	5 ;     CG2R61     CG2R61     CG2R61
   17    18    19	5 ;     CG2R61     CG2R61     CG2R61
   17    18    50	5 ;     CG2R61     CG2R61      HGR61
   19    18    50	5 ;     CG2R61     CG2R61      HGR61
   18    19    14	5 ;     CG2R61     CG2R61     CG2R67
   18    19    51	5 ;     CG2R61     CG2R61      HGR61
   14    19    51	5 ;     CG2R67     CG2R61      HGR61
   23    20    21	5 ;      CG331      SG3O2      OG2P1
   23    20    17	5 ;      CG331      SG3O2     CG2R61
   23    20    22	5 ;      CG331      SG3O2      OG2P1
   21    20    17	5 ;      OG2P1      SG3O2     CG2R61
   21    20    22	5 ;      OG2P1      SG3O2      OG2P1
   17    20    22	5 ;     CG2R61      SG3O2      OG2P1
   20    23    52	5 ;      SG3O2      CG331       HGA3
   20    23    53	5 ;      SG3O2      CG331       HGA3
   20    23    54	5 ;      SG3O2      CG331       HGA3
   52    23    53	5 ;       HGA3      CG331       HGA3
   52    23    54	5 ;       HGA3      CG331       HGA3
   53    23    54	5 ;       HGA3      CG331       HGA3
   26    24    25	5 ;      NG2S0      CG2O1      OG2D1
   26    24     5	5 ;      NG2S0      CG2O1     CG3C51
   25    24     5	5 ;      OG2D1      CG2O1     CG3C51
   28    26    27	5 ;      CG311      NG2S0      CG321
   28    26    24	5 ;      CG311      NG2S0      CG2O1
   27    26    24	5 ;      CG321      NG2S0      CG2O1
   29    27    26	5 ;      CG321      CG321      NG2S0
   29    27    55	5 ;      CG321      CG321       HGA2
   29    27    56	5 ;      CG321      CG321       HGA2
   26    27    55	5 ;      NG2S0      CG321       HGA2
   26    27    56	5 ;      NG2S0      CG321       HGA2
   55    27    56	5 ;       HGA2      CG321       HGA2
   31    28    32	5 ;      CG321      CG311     CG2R61
   31    28    26	5 ;      CG321      CG311      NG2S0
   31    28    57	5 ;      CG321      CG311       HGA1
   32    28    26	5 ;     CG2R61      CG311      NG2S0
   32    28    57	5 ;     CG2R61      CG311       HGA1
   26    28    57	5 ;      NG2S0      CG311       HGA1
   30    29    27	5 ;     OG3C61      CG321      CG321
   30    29    58	5 ;     OG3C61      CG321       HGA2
   30    29    59	5 ;     OG3C61      CG321       HGA2
   27    29    58	5 ;      CG321      CG321       HGA2
   27    29    59	5 ;      CG321      CG321       HGA2
   58    29    59	5 ;       HGA2      CG321       HGA2
   31    30    29	5 ;      CG321     OG3C61      CG321
   30    31    28	5 ;     OG3C61      CG321      CG311
   30    31    60	5 ;     OG3C61      CG321       HGA2
   30    31    61	5 ;     OG3C61      CG321       HGA2
   28    31    60	5 ;      CG311      CG321       HGA2
   28    31    61	5 ;      CG311      CG321       HGA2
   60    31    61	5 ;       HGA2      CG321       HGA2
   33    32    28	5 ;     CG2R61     CG2R61      CG311
   33    32    37	5 ;     CG2R61     CG2R61     CG2R61
   28    32    37	5 ;      CG311     CG2R61     CG2R61
   34    33    32	5 ;     CG2R61     CG2R61     CG2R61
   34    33    62	5 ;     CG2R61     CG2R61      HGR61
   32    33    62	5 ;     CG2R61     CG2R61      HGR61
   33    34    35	5 ;     CG2R61     CG2R61     CG2R61
   33    34    63	5 ;     CG2R61     CG2R61      HGR61
   35    34    63	5 ;     CG2R61     CG2R61      HGR61
   34    35    36	5 ;     CG2R61     CG2R61     CG2R61
   34    35    64	5 ;     CG2R61     CG2R61      HGR61
   36    35    64	5 ;     CG2R61     CG2R61      HGR61
   35    36    37	5 ;     CG2R61     CG2R61     CG2R61
   35    36    65	5 ;     CG2R61     CG2R61      HGR61
   37    36    65	5 ;     CG2R61     CG2R61      HGR61
   32    37    36	5 ;     CG2R61     CG2R61     CG2R61
   32    37    66	5 ;     CG2R61     CG2R61      HGR61
   36    37    66	5 ;     CG2R61     CG2R61      HGR61

[ dihedrals ]
;	ai	  aj	ak	  al funct			  c0			c1			  c2			c3			  c4			c5
    8     1     5    24	 9 ;     CG2R61     CG3C51     CG3C51      CG2O1
    8     1     5     4	 9 ;     CG2R61     CG3C51     CG3C51     CG3C54
    8     1     5    43	 9 ;     CG2R61     CG3C51     CG3C51       HGA1
    2     1     5    24	 9 ;     CG3C54     CG3C51     CG3C51      CG2O1
    2     1     5     4	 9 ;     CG3C54     CG3C51     CG3C51     CG3C54
    2     1     5    43	 9 ;     CG3C54     CG3C51     CG3C51       HGA1
   38     1     5    24	 9 ;       HGA1     CG3C51     CG3C51      CG2O1
   38     1     5     4	 9 ;       HGA1     CG3C51     CG3C51     CG3C54
   38     1     5    43	 9 ;       HGA1     CG3C51     CG3C51       HGA1
    5     1     8     9	 9 ;     CG3C51     CG3C51     CG2R61     CG2R61
    5     1     8    13	 9 ;     CG3C51     CG3C51     CG2R61     CG2R67
    2     1     8     9	 9 ;     CG3C54     CG3C51     CG2R61     CG2R61
    2     1     8    13	 9 ;     CG3C54     CG3C51     CG2R61     CG2R67
   38     1     8     9	 9 ;       HGA1     CG3C51     CG2R61     CG2R61
   38     1     8    13	 9 ;       HGA1     CG3C51     CG2R61     CG2R67
    5     1     2     3	 9 ;     CG3C51     CG3C51     CG3C54      NG3P2
    5     1     2    39	 9 ;     CG3C51     CG3C51     CG3C54       HGA2
    5     1     2    40	 9 ;     CG3C51     CG3C51     CG3C54       HGA2
    8     1     2     3	 9 ;     CG2R61     CG3C51     CG3C54      NG3P2
    8     1     2    39	 9 ;     CG2R61     CG3C51     CG3C54       HGA2
    8     1     2    40	 9 ;     CG2R61     CG3C51     CG3C54       HGA2
   38     1     2     3	 9 ;       HGA1     CG3C51     CG3C54      NG3P2
   38     1     2    39	 9 ;       HGA1     CG3C51     CG3C54       HGA2
   38     1     2    40	 9 ;       HGA1     CG3C51     CG3C54       HGA2
    1     2     3     4	 9 ;     CG3C51     CG3C54      NG3P2     CG3C54
    1     2     3     6	 9 ;     CG3C51     CG3C54      NG3P2       HGP2
    1     2     3     7	 9 ;     CG3C51     CG3C54      NG3P2       HGP2
   39     2     3     4	 9 ;       HGA2     CG3C54      NG3P2     CG3C54
   39     2     3     6	 9 ;       HGA2     CG3C54      NG3P2       HGP2
   39     2     3     7	 9 ;       HGA2     CG3C54      NG3P2       HGP2
   40     2     3     4	 9 ;       HGA2     CG3C54      NG3P2     CG3C54
   40     2     3     6	 9 ;       HGA2     CG3C54      NG3P2       HGP2
   40     2     3     7	 9 ;       HGA2     CG3C54      NG3P2       HGP2
    6     3     4     5	 9 ;       HGP2      NG3P2     CG3C54     CG3C51
    6     3     4    41	 9 ;       HGP2      NG3P2     CG3C54       HGA2
    6     3     4    42	 9 ;       HGP2      NG3P2     CG3C54       HGA2
    7     3     4     5	 9 ;       HGP2      NG3P2     CG3C54     CG3C51
    7     3     4    41	 9 ;       HGP2      NG3P2     CG3C54       HGA2
    7     3     4    42	 9 ;       HGP2      NG3P2     CG3C54       HGA2
    2     3     4     5	 9 ;     CG3C54      NG3P2     CG3C54     CG3C51
    2     3     4    41	 9 ;     CG3C54      NG3P2     CG3C54       HGA2
    2     3     4    42	 9 ;     CG3C54      NG3P2     CG3C54       HGA2
    3     4     5    24	 9 ;      NG3P2     CG3C54     CG3C51      CG2O1
    3     4     5     1	 9 ;      NG3P2     CG3C54     CG3C51     CG3C51
    3     4     5    43	 9 ;      NG3P2     CG3C54     CG3C51       HGA1
   41     4     5    24	 9 ;       HGA2     CG3C54     CG3C51      CG2O1
   41     4     5     1	 9 ;       HGA2     CG3C54     CG3C51     CG3C51
   41     4     5    43	 9 ;       HGA2     CG3C54     CG3C51       HGA1
   42     4     5    24	 9 ;       HGA2     CG3C54     CG3C51      CG2O1
   42     4     5     1	 9 ;       HGA2     CG3C54     CG3C51     CG3C51
   42     4     5    43	 9 ;       HGA2     CG3C54     CG3C51       HGA1
    4     5    24    26	 9 ;     CG3C54     CG3C51      CG2O1      NG2S0
    4     5    24    25	 9 ;     CG3C54     CG3C51      CG2O1      OG2D1
    1     5    24    26	 9 ;     CG3C51     CG3C51      CG2O1      NG2S0
    1     5    24    25	 9 ;     CG3C51     CG3C51      CG2O1      OG2D1
   43     5    24    26	 9 ;       HGA1     CG3C51      CG2O1      NG2S0
   43     5    24    25	 9 ;       HGA1     CG3C51      CG2O1      OG2D1
    1     8     9    10	 9 ;     CG3C51     CG2R61     CG2R61     CG2R61
    1     8     9    44	 9 ;     CG3C51     CG2R61     CG2R61      HGR61
   13     8     9    10	 9 ;     CG2R67     CG2R61     CG2R61     CG2R61
   13     8     9    44	 9 ;     CG2R67     CG2R61     CG2R61      HGR61
    9     8    13    14	 9 ;     CG2R61     CG2R61     CG2R67     CG2R67
    9     8    13    12	 9 ;     CG2R61     CG2R61     CG2R67     CG2R61
    1     8    13    14	 9 ;     CG3C51     CG2R61     CG2R67     CG2R67
    1     8    13    12	 9 ;     CG3C51     CG2R61     CG2R67     CG2R61
    8     9    10    11	 9 ;     CG2R61     CG2R61     CG2R61     CG2R61
    8     9    10    45	 9 ;     CG2R61     CG2R61     CG2R61      HGR61
   44     9    10    11	 9 ;      HGR61     CG2R61     CG2R61     CG2R61
   44     9    10    45	 9 ;      HGR61     CG2R61     CG2R61      HGR61
    9    10    11    12	 9 ;     CG2R61     CG2R61     CG2R61     CG2R61
    9    10    11    46	 9 ;     CG2R61     CG2R61     CG2R61      HGR61
   45    10    11    12	 9 ;      HGR61     CG2R61     CG2R61     CG2R61
   45    10    11    46	 9 ;      HGR61     CG2R61     CG2R61      HGR61
   10    11    12    13	 9 ;     CG2R61     CG2R61     CG2R61     CG2R67
   10    11    12    47	 9 ;     CG2R61     CG2R61     CG2R61      HGR61
   46    11    12    13	 9 ;      HGR61     CG2R61     CG2R61     CG2R67
   46    11    12    47	 9 ;      HGR61     CG2R61     CG2R61      HGR61
   11    12    13    14	 9 ;     CG2R61     CG2R61     CG2R67     CG2R67
   11    12    13     8	 9 ;     CG2R61     CG2R61     CG2R67     CG2R61
   47    12    13    14	 9 ;      HGR61     CG2R61     CG2R67     CG2R67
   47    12    13     8	 9 ;      HGR61     CG2R61     CG2R67     CG2R61
    8    13    14    15	 9 ;     CG2R61     CG2R67     CG2R67     CG2R61
    8    13    14    19	 9 ;     CG2R61     CG2R67     CG2R67     CG2R61
   12    13    14    15	 9 ;     CG2R61     CG2R67     CG2R67     CG2R61
   12    13    14    19	 9 ;     CG2R61     CG2R67     CG2R67     CG2R61
   13    14    15    16	 9 ;     CG2R67     CG2R67     CG2R61     CG2R61
   13    14    15    48	 9 ;     CG2R67     CG2R67     CG2R61      HGR61
   19    14    15    16	 9 ;     CG2R61     CG2R67     CG2R61     CG2R61
   19    14    15    48	 9 ;     CG2R61     CG2R67     CG2R61      HGR61
   15    14    19    18	 9 ;     CG2R61     CG2R67     CG2R61     CG2R61
   15    14    19    51	 9 ;     CG2R61     CG2R67     CG2R61      HGR61
   13    14    19    18	 9 ;     CG2R67     CG2R67     CG2R61     CG2R61
   13    14    19    51	 9 ;     CG2R67     CG2R67     CG2R61      HGR61
   14    15    16    17	 9 ;     CG2R67     CG2R61     CG2R61     CG2R61
   14    15    16    49	 9 ;     CG2R67     CG2R61     CG2R61      HGR61
   48    15    16    17	 9 ;      HGR61     CG2R61     CG2R61     CG2R61
   48    15    16    49	 9 ;      HGR61     CG2R61     CG2R61      HGR61
   15    16    17    20	 9 ;     CG2R61     CG2R61     CG2R61      SG3O2
   15    16    17    18	 9 ;     CG2R61     CG2R61     CG2R61     CG2R61
   49    16    17    20	 9 ;      HGR61     CG2R61     CG2R61      SG3O2
   49    16    17    18	 9 ;      HGR61     CG2R61     CG2R61     CG2R61
   16    17    20    23	 9 ;     CG2R61     CG2R61      SG3O2      CG331
   16    17    20    21	 9 ;     CG2R61     CG2R61      SG3O2      OG2P1
   16    17    20    22	 9 ;     CG2R61     CG2R61      SG3O2      OG2P1
   18    17    20    23	 9 ;     CG2R61     CG2R61      SG3O2      CG331
   18    17    20    21	 9 ;     CG2R61     CG2R61      SG3O2      OG2P1
   18    17    20    22	 9 ;     CG2R61     CG2R61      SG3O2      OG2P1
   20    17    18    19	 9 ;      SG3O2     CG2R61     CG2R61     CG2R61
   20    17    18    50	 9 ;      SG3O2     CG2R61     CG2R61      HGR61
   16    17    18    19	 9 ;     CG2R61     CG2R61     CG2R61     CG2R61
   16    17    18    50	 9 ;     CG2R61     CG2R61     CG2R61      HGR61
   17    18    19    14	 9 ;     CG2R61     CG2R61     CG2R61     CG2R67
   17    18    19    51	 9 ;     CG2R61     CG2R61     CG2R61      HGR61
   50    18    19    14	 9 ;      HGR61     CG2R61     CG2R61     CG2R67
   50    18    19    51	 9 ;      HGR61     CG2R61     CG2R61      HGR61
   21    20    23    52	 9 ;      OG2P1      SG3O2      CG331       HGA3
   21    20    23    53	 9 ;      OG2P1      SG3O2      CG331       HGA3
   21    20    23    54	 9 ;      OG2P1      SG3O2      CG331       HGA3
   17    20    23    52	 9 ;     CG2R61      SG3O2      CG331       HGA3
   17    20    23    53	 9 ;     CG2R61      SG3O2      CG331       HGA3
   17    20    23    54	 9 ;     CG2R61      SG3O2      CG331       HGA3
   22    20    23    52	 9 ;      OG2P1      SG3O2      CG331       HGA3
   22    20    23    53	 9 ;      OG2P1      SG3O2      CG331       HGA3
   22    20    23    54	 9 ;      OG2P1      SG3O2      CG331       HGA3
   25    24    26    28	 9 ;      OG2D1      CG2O1      NG2S0      CG311
   25    24    26    27	 9 ;      OG2D1      CG2O1      NG2S0      CG321
    5    24    26    28	 9 ;     CG3C51      CG2O1      NG2S0      CG311
    5    24    26    27	 9 ;     CG3C51      CG2O1      NG2S0      CG321
   27    26    28    31	 9 ;      CG321      NG2S0      CG311      CG321
   27    26    28    32	 9 ;      CG321      NG2S0      CG311     CG2R61
   27    26    28    57	 9 ;      CG321      NG2S0      CG311       HGA1
   24    26    28    31	 9 ;      CG2O1      NG2S0      CG311      CG321
   24    26    28    32	 9 ;      CG2O1      NG2S0      CG311     CG2R61
   24    26    28    57	 9 ;      CG2O1      NG2S0      CG311       HGA1
   28    26    27    29	 9 ;      CG311      NG2S0      CG321      CG321
   28    26    27    55	 9 ;      CG311      NG2S0      CG321       HGA2
   28    26    27    56	 9 ;      CG311      NG2S0      CG321       HGA2
   24    26    27    29	 9 ;      CG2O1      NG2S0      CG321      CG321
   24    26    27    55	 9 ;      CG2O1      NG2S0      CG321       HGA2
   24    26    27    56	 9 ;      CG2O1      NG2S0      CG321       HGA2
   26    27    29    30	 9 ;      NG2S0      CG321      CG321     OG3C61
   26    27    29    58	 9 ;      NG2S0      CG321      CG321       HGA2
   26    27    29    59	 9 ;      NG2S0      CG321      CG321       HGA2
   55    27    29    30	 9 ;       HGA2      CG321      CG321     OG3C61
   55    27    29    58	 9 ;       HGA2      CG321      CG321       HGA2
   55    27    29    59	 9 ;       HGA2      CG321      CG321       HGA2
   56    27    29    30	 9 ;       HGA2      CG321      CG321     OG3C61
   56    27    29    58	 9 ;       HGA2      CG321      CG321       HGA2
   56    27    29    59	 9 ;       HGA2      CG321      CG321       HGA2
   32    28    31    30	 9 ;     CG2R61      CG311      CG321     OG3C61
   32    28    31    60	 9 ;     CG2R61      CG311      CG321       HGA2
   32    28    31    61	 9 ;     CG2R61      CG311      CG321       HGA2
   26    28    31    30	 9 ;      NG2S0      CG311      CG321     OG3C61
   26    28    31    60	 9 ;      NG2S0      CG311      CG321       HGA2
   26    28    31    61	 9 ;      NG2S0      CG311      CG321       HGA2
   57    28    31    30	 9 ;       HGA1      CG311      CG321     OG3C61
   57    28    31    60	 9 ;       HGA1      CG311      CG321       HGA2
   57    28    31    61	 9 ;       HGA1      CG311      CG321       HGA2
   31    28    32    33	 9 ;      CG321      CG311     CG2R61     CG2R61
   31    28    32    37	 9 ;      CG321      CG311     CG2R61     CG2R61
   26    28    32    33	 9 ;      NG2S0      CG311     CG2R61     CG2R61
   26    28    32    37	 9 ;      NG2S0      CG311     CG2R61     CG2R61
   57    28    32    33	 9 ;       HGA1      CG311     CG2R61     CG2R61
   57    28    32    37	 9 ;       HGA1      CG311     CG2R61     CG2R61
   27    29    30    31	 9 ;      CG321      CG321     OG3C61      CG321
   58    29    30    31	 9 ;       HGA2      CG321     OG3C61      CG321
   59    29    30    31	 9 ;       HGA2      CG321     OG3C61      CG321
   29    30    31    28	 9 ;      CG321     OG3C61      CG321      CG311
   29    30    31    60	 9 ;      CG321     OG3C61      CG321       HGA2
   29    30    31    61	 9 ;      CG321     OG3C61      CG321       HGA2
   28    32    33    34	 9 ;      CG311     CG2R61     CG2R61     CG2R61
   28    32    33    62	 9 ;      CG311     CG2R61     CG2R61      HGR61
   37    32    33    34	 9 ;     CG2R61     CG2R61     CG2R61     CG2R61
   37    32    33    62	 9 ;     CG2R61     CG2R61     CG2R61      HGR61
   33    32    37    36	 9 ;     CG2R61     CG2R61     CG2R61     CG2R61
   33    32    37    66	 9 ;     CG2R61     CG2R61     CG2R61      HGR61
   28    32    37    36	 9 ;      CG311     CG2R61     CG2R61     CG2R61
   28    32    37    66	 9 ;      CG311     CG2R61     CG2R61      HGR61
   32    33    34    35	 9 ;     CG2R61     CG2R61     CG2R61     CG2R61
   32    33    34    63	 9 ;     CG2R61     CG2R61     CG2R61      HGR61
   62    33    34    35	 9 ;      HGR61     CG2R61     CG2R61     CG2R61
   62    33    34    63	 9 ;      HGR61     CG2R61     CG2R61      HGR61
   33    34    35    36	 9 ;     CG2R61     CG2R61     CG2R61     CG2R61
   33    34    35    64	 9 ;     CG2R61     CG2R61     CG2R61      HGR61
   63    34    35    36	 9 ;      HGR61     CG2R61     CG2R61     CG2R61
   63    34    35    64	 9 ;      HGR61     CG2R61     CG2R61      HGR61
   34    35    36    37	 9 ;     CG2R61     CG2R61     CG2R61     CG2R61
   34    35    36    65	 9 ;     CG2R61     CG2R61     CG2R61      HGR61
   64    35    36    37	 9 ;      HGR61     CG2R61     CG2R61     CG2R61
   64    35    36    65	 9 ;      HGR61     CG2R61     CG2R61      HGR61
   35    36    37    32	 9 ;     CG2R61     CG2R61     CG2R61     CG2R61
   35    36    37    66	 9 ;     CG2R61     CG2R61     CG2R61      HGR61
   65    36    37    32	 9 ;      HGR61     CG2R61     CG2R61     CG2R61
   65    36    37    66	 9 ;      HGR61     CG2R61     CG2R61      HGR61

[ dihedrals ]
;	ai	  aj	ak	  al funct			  c0			c1			  c2			c3
   24     5    26    25	 2

