Gromacs Runs One Microsecond At Cannonball Speeds
   70
    1LIG      S    1  -2.079   0.557  -1.629
    1LIG     O1    2  -2.025   0.653  -1.537
    1LIG     O2    3  -2.220   0.534  -1.647
    1LIG     N1    4  -1.997   0.412  -1.599
    1LIG     C1    5  -1.857   0.417  -1.650
    1LIG     C2    6  -1.766   0.468  -1.537
    1LIG     C3    7  -1.616   0.469  -1.568
    1LIG     N2    8  -1.575   0.333  -1.622
    1LIG     C4    9  -1.660   0.281  -1.736
    1LIG     C5   10  -1.807   0.279  -1.696
    1LIG     C6   11  -1.569   0.582  -1.659
    1LIG     C7   12  -1.867   0.517  -1.772
    1LIG     N3   13  -2.003   0.571  -1.779
    1LIG      H   14  -1.590   0.268  -1.544
    1LIG     C8   15  -2.066   0.303  -1.539
    1LIG     C9   16  -2.160   0.231  -1.613
    1LIG    C10   17  -2.223   0.122  -1.555
    1LIG      F   18  -2.313   0.053  -1.626
    1LIG    C11   19  -2.193   0.082  -1.425
    1LIG    C12   20  -2.099   0.153  -1.352
    1LIG    C13   21  -2.035   0.264  -1.409
    1LIG    C14   22  -2.025   0.697  -1.836
    1LIG     O3   23  -1.926   0.761  -1.906
    1LIG    C15   24  -1.974   0.885  -1.929
    1LIG    C16   25  -2.101   0.891  -1.876
    1LIG     N4   26  -2.129   0.774  -1.810
    1LIG     HN   27  -2.211   0.752  -1.753
    1LIG    C17   28  -1.425   0.321  -1.653
    1LIG    C18   29  -1.340   0.321  -1.529
    1LIG    C19   30  -1.310   0.198  -1.468
    1LIG    C20   31  -1.237   0.191  -1.350
    1LIG    C21   32  -1.187   0.309  -1.295
    1LIG    C22   33  -1.213   0.432  -1.355
    1LIG    C23   34  -1.290   0.438  -1.472
    1LIG     O4   35  -1.206   0.075  -1.284
    1LIG    C24   36  -1.131  -0.025  -1.355
    1LIG    C25   37  -0.983   0.002  -1.332
    1LIG    C26   38  -1.172  -0.163  -1.306
    1LIG    HC2   39  -1.796   0.570  -1.514
    1LIG    HC3   40  -1.783   0.407  -1.449
    1LIG     HC   41  -1.564   0.482  -1.472
    1LIG    HC4   42  -1.647   0.346  -1.822
    1LIG    HC5   43  -1.628   0.180  -1.761
    1LIG    HC6   44  -1.866   0.247  -1.781
    1LIG    HC7   45  -1.820   0.208  -1.614
    1LIG    HC1   46  -1.469   0.613  -1.630
    1LIG    HC8   47  -1.568   0.548  -1.762
    1LIG    HC9   48  -1.637   0.667  -1.649
    1LIG   HC10   49  -1.796   0.598  -1.758
    1LIG   HC11   50  -1.844   0.464  -1.865
    1LIG   HC12   51  -2.184   0.261  -1.714
    1LIG   HC13   52  -2.243  -0.004  -1.382
    1LIG   HC14   53  -2.075   0.123  -1.251
    1LIG   HC15   54  -1.962   0.319  -1.352
    1LIG   HC16   55  -1.923   0.965  -1.980
    1LIG   HC17   56  -2.168   0.975  -1.886
    1LIG   HC18   57  -1.395   0.405  -1.715
    1LIG   HC19   58  -1.408   0.228  -1.708
    1LIG   HC20   59  -1.344   0.106  -1.514
    1LIG   HC21   60  -1.127   0.305  -1.205
    1LIG   HC22   61  -1.174   0.523  -1.312
    1LIG   HC23   62  -1.311   0.534  -1.518
    1LIG   HC24   63  -1.153  -0.017  -1.461
    1LIG   HC25   64  -0.959   0.102  -1.369
    1LIG   HC26   65  -0.960  -0.004  -1.226
    1LIG   HC27   66  -0.924  -0.071  -1.387
    1LIG   HC28   67  -1.278  -0.179  -1.324
    1LIG   HC29   68  -1.151  -0.172  -1.199
    1LIG   HC30   69  -1.115  -0.239  -1.360
    1LIG    H34   70  -2.070   0.656  -1.926
   0.00000   0.00000   0.00000
