; Created by cgenff_charmm2gmx.py

[ moleculetype ]
; Name			   nrexcl
LIG				 3

[ atoms ]
;	 nr		  type	resnr residue  atom   cgnr	   charge		mass  typeB    chargeB		massB
; residue	 1 LIG rtp LIG q	qsum
     1     CG2R61      1    LIG     C1      1     -0.139     12.011   ;
     2     CG2R61      1    LIG     C2      2     -0.127     12.011   ;
     3     CG2R61      1    LIG     C3      3     -0.308     12.011   ;
     4     CG2R61      1    LIG     C4      4      0.053     12.011   ;
     5      CG321      1    LIG     C5      5     -0.291     12.011   ;
     6      CG301      1    LIG     C6      6      0.073     12.011   ;
     7      CG321      1    LIG     C7      7     -0.188     12.011   ;
     8     CG3C50      1    LIG     C8      8      0.927     12.011   ;
     9      NG3P2      1    LIG     N1      9     -0.682     14.007   ;
    10       HGP2      1    LIG    HN3     10      0.317      1.008   ;
    11     CG3C53      1    LIG     C9     11      0.787     12.011   ;
    12      SG311      1    LIG      S     12     -0.135     32.060   ;
    13     CG3C52      1    LIG    C10     13     -0.123     12.011   ;
    14      CG331      1    LIG    C11     14     -0.275     12.011   ;
    15      CG331      1    LIG    C12     15     -0.275     12.011   ;
    16     CG2R61      1    LIG    C13     16     -0.109     12.011   ;
    17     CG2R61      1    LIG    C14     17     -0.113     12.011   ;
    18     CG2DC1      1    LIG    C15     18      0.173     12.011   ;
    19     CG2DC2      1    LIG    C16     19     -0.202     12.011   ;
    20     CG2DC2      1    LIG    C17     20      0.010     12.011   ;
    21      CLGA1      1    LIG     CL     21     -0.169     35.453   ;
    22      CG321      1    LIG    C18     22      0.004     12.011   ;
    23      NG311      1    LIG     N2     23     -0.540     14.007   ;
    24     CG2D1O      1    LIG    C19     24     -0.044     12.011   ;
    25     HGPAM1      1    LIG    HN4     25      0.389      1.008   ;
    26      NG3P3      1    LIG     N3     26     -0.328     14.007   ;
    27       HGP2      1    LIG     H1     27      0.307      1.008   ;
    28       HGP2      1    LIG     H2     28      0.307      1.008   ;
    29      HGR61      1    LIG     HC     29      0.116      1.008   ;
    30       HGA2      1    LIG    HC2     30      0.090      1.008   ;
    31       HGA2      1    LIG    HC3     31      0.090      1.008   ;
    32       HGA2      1    LIG    HC4     32      0.090      1.008   ;
    33       HGA2      1    LIG    HC5     33      0.090      1.008   ;
    34       HGP2      1    LIG    HN2     34      0.317      1.008   ;
    35       HGA1      1    LIG    HC1     35      0.124      1.008   ;
    36       HGA2      1    LIG    HC6     36      0.090      1.008   ;
    37       HGA2      1    LIG    HC7     37      0.090      1.008   ;
    38       HGA3      1    LIG    HC8     38      0.090      1.008   ;
    39       HGA3      1    LIG    HC9     39      0.090      1.008   ;
    40       HGA3      1    LIG   HC10     40      0.090      1.008   ;
    41       HGA3      1    LIG   HC11     41      0.090      1.008   ;
    42       HGA3      1    LIG   HC12     42      0.090      1.008   ;
    43       HGA3      1    LIG   HC13     43      0.090      1.008   ;
    44      HGR61      1    LIG   HC14     44      0.116      1.008   ;
    45      HGR61      1    LIG   HC15     45      0.116      1.008   ;
    46       HGA4      1    LIG   HC16     46      0.143      1.008   ;
    47       HGA2      1    LIG   HC17     47      0.090      1.008   ;
    48       HGA4      1    LIG   HC18     48      0.152      1.008   ;
    49       HGP2      1    LIG    HN1     49      0.307      1.008   ;
    50       HGA2      1    LIG    H26     50      0.090      1.008   ;
    51        LPH      1    LIG    LP1     51      0.050      0.000   ;

[ bonds ]
;	ai	  aj funct			  c0			c1			  c2			c3
    1     2	 1 ;      CG2R61     CG2R61
    1    18	 1 ;      CG2R61     CG2DC1
    1    17	 1 ;      CG2R61     CG2R61
    2     3	 1 ;      CG2R61     CG2R61
    2    29	 1 ;      CG2R61      HGR61
    3     8	 1 ;      CG2R61     CG3C50
    3     4	 1 ;      CG2R61     CG2R61
    4     5	 1 ;      CG2R61      CG321
    4    16	 1 ;      CG2R61     CG2R61
    5     6	 1 ;       CG321      CG301
    5    30	 1 ;       CG321       HGA2
    5    31	 1 ;       CG321       HGA2
    6     7	 1 ;       CG301      CG321
    6    14	 1 ;       CG301      CG331
    6    15	 1 ;       CG301      CG331
    7     8	 1 ;       CG321     CG3C50
    7    32	 1 ;       CG321       HGA2
    7    33	 1 ;       CG321       HGA2
    8    13	 1 ;      CG3C50     CG3C52
    8     9	 1 ;      CG3C50      NG3P2
    9    11	 1 ;       NG3P2     CG3C53
    9    10	 1 ;       NG3P2       HGP2
    9    34	 1 ;       NG3P2       HGP2
   11    12	 1 ;      CG3C53      SG311
   11    26	 1 ;      CG3C53      NG3P3
   11    35	 1 ;      CG3C53       HGA1
   12    13	 1 ;       SG311     CG3C52
   13    36	 1 ;      CG3C52       HGA2
   13    37	 1 ;      CG3C52       HGA2
   14    38	 1 ;       CG331       HGA3
   14    39	 1 ;       CG331       HGA3
   14    40	 1 ;       CG331       HGA3
   15    41	 1 ;       CG331       HGA3
   15    42	 1 ;       CG331       HGA3
   15    43	 1 ;       CG331       HGA3
   16    17	 1 ;      CG2R61     CG2R61
   16    44	 1 ;      CG2R61      HGR61
   17    45	 1 ;      CG2R61      HGR61
   18    24	 1 ;      CG2DC1     CG2D1O
   18    19	 1 ;      CG2DC1     CG2DC2
   19    20	 1 ;      CG2DC2     CG2DC2
   19    46	 1 ;      CG2DC2       HGA4
   20    22	 1 ;      CG2DC2      CG321
   20    21	 1 ;      CG2DC2      CLGA1
   22    23	 1 ;       CG321      NG311
   22    47	 1 ;       CG321       HGA2
   22    50	 1 ;       CG321       HGA2
   23    25	 1 ;       NG311     HGPAM1
   23    24	 1 ;       NG311     CG2D1O
   24    48	 1 ;      CG2D1O       HGA4
   26    28	 1 ;       NG3P3       HGP2
   26    27	 1 ;       NG3P3       HGP2
   26    49	 1 ;       NG3P3       HGP2

[ pairs ]
;	ai	  aj funct			  c0			c1			  c2			c3
    1     8	 1
    1     4	 1
    1    44	 1
    1    23	 1
    1    48	 1
    1    20	 1
    1    46	 1
    2    24	 1
    2    19	 1
    2    16	 1
    2    45	 1
    2    13	 1
    2     9	 1
    2     7	 1
    2     5	 1
    3    18	 1
    3    17	 1
    3     6	 1
    3    30	 1
    3    31	 1
    3    44	 1
    3    32	 1
    3    33	 1
    3    12	 1
    3    36	 1
    3    37	 1
    3    11	 1
    3    10	 1
    3    34	 1
    4    29	 1
    4    13	 1
    4     9	 1
    4     7	 1
    4    14	 1
    4    15	 1
    4    45	 1
    5     8	 1
    5    17	 1
    5    44	 1
    5    32	 1
    5    33	 1
    5    38	 1
    5    39	 1
    5    40	 1
    5    41	 1
    5    42	 1
    5    43	 1
    6    16	 1
    6    13	 1
    6     9	 1
    7    30	 1
    7    31	 1
    7    38	 1
    7    39	 1
    7    40	 1
    7    41	 1
    7    42	 1
    7    43	 1
    7    12	 1
    7    36	 1
    7    37	 1
    7    11	 1
    7    10	 1
    7    34	 1
    8    29	 1
    8    16	 1
    8    14	 1
    8    15	 1
    8    26	 1
    8    35	 1
    9    32	 1
    9    33	 1
    9    36	 1
    9    37	 1
    9    28	 1
    9    27	 1
    9    49	 1
   10    13	 1
   10    12	 1
   10    26	 1
   10    35	 1
   11    36	 1
   11    37	 1
   12    34	 1
   12    28	 1
   12    27	 1
   12    49	 1
   13    32	 1
   13    33	 1
   13    34	 1
   13    26	 1
   13    35	 1
   14    30	 1
   14    31	 1
   14    32	 1
   14    33	 1
   14    41	 1
   14    42	 1
   14    43	 1
   15    30	 1
   15    31	 1
   15    32	 1
   15    33	 1
   15    38	 1
   15    39	 1
   15    40	 1
   16    18	 1
   16    30	 1
   16    31	 1
   17    29	 1
   17    24	 1
   17    19	 1
   18    29	 1
   18    45	 1
   18    22	 1
   18    21	 1
   51    18	 1
   18    25	 1
   19    23	 1
   19    48	 1
   19    47	 1
   19    50	 1
   20    24	 1
   20    25	 1
   21    46	 1
   51    46	 1
   21    23	 1
   51    23	 1
   21    47	 1
   51    47	 1
   21    50	 1
   51    50	 1
   22    46	 1
   22    48	 1
   24    46	 1
   24    47	 1
   24    50	 1
   25    47	 1
   25    50	 1
   25    48	 1
   26    34	 1
   27    35	 1
   28    35	 1
   34    35	 1
   35    49	 1
   44    45	 1

[ angles ]
;	ai	  aj	ak funct			c0			  c1			c2			  c3
    2     1    18	5 ;     CG2R61     CG2R61     CG2DC1
    2     1    17	5 ;     CG2R61     CG2R61     CG2R61
   18     1    17	5 ;     CG2DC1     CG2R61     CG2R61
    3     2     1	5 ;     CG2R61     CG2R61     CG2R61
    3     2    29	5 ;     CG2R61     CG2R61      HGR61
    1     2    29	5 ;     CG2R61     CG2R61      HGR61
    8     3     2	5 ;     CG3C50     CG2R61     CG2R61
    8     3     4	5 ;     CG3C50     CG2R61     CG2R61
    2     3     4	5 ;     CG2R61     CG2R61     CG2R61
    3     4     5	5 ;     CG2R61     CG2R61      CG321
    3     4    16	5 ;     CG2R61     CG2R61     CG2R61
    5     4    16	5 ;      CG321     CG2R61     CG2R61
    4     5     6	5 ;     CG2R61      CG321      CG301
    4     5    30	5 ;     CG2R61      CG321       HGA2
    4     5    31	5 ;     CG2R61      CG321       HGA2
    6     5    30	5 ;      CG301      CG321       HGA2
    6     5    31	5 ;      CG301      CG321       HGA2
   30     5    31	5 ;       HGA2      CG321       HGA2
    7     6    14	5 ;      CG321      CG301      CG331
    7     6    15	5 ;      CG321      CG301      CG331
    7     6     5	5 ;      CG321      CG301      CG321
   14     6    15	5 ;      CG331      CG301      CG331
   14     6     5	5 ;      CG331      CG301      CG321
   15     6     5	5 ;      CG331      CG301      CG321
    8     7     6	5 ;     CG3C50      CG321      CG301
    8     7    32	5 ;     CG3C50      CG321       HGA2
    8     7    33	5 ;     CG3C50      CG321       HGA2
    6     7    32	5 ;      CG301      CG321       HGA2
    6     7    33	5 ;      CG301      CG321       HGA2
   32     7    33	5 ;       HGA2      CG321       HGA2
   13     8     9	5 ;     CG3C52     CG3C50      NG3P2
   13     8     7	5 ;     CG3C52     CG3C50      CG321
   13     8     3	5 ;     CG3C52     CG3C50     CG2R61
    9     8     7	5 ;      NG3P2     CG3C50      CG321
    9     8     3	5 ;      NG3P2     CG3C50     CG2R61
    7     8     3	5 ;      CG321     CG3C50     CG2R61
   11     9     8	5 ;     CG3C53      NG3P2     CG3C50
   11     9    10	5 ;     CG3C53      NG3P2       HGP2
   11     9    34	5 ;     CG3C53      NG3P2       HGP2
    8     9    10	5 ;     CG3C50      NG3P2       HGP2
    8     9    34	5 ;     CG3C50      NG3P2       HGP2
   10     9    34	5 ;       HGP2      NG3P2       HGP2
   12    11    26	5 ;      SG311     CG3C53      NG3P3
   12    11     9	5 ;      SG311     CG3C53      NG3P2
   12    11    35	5 ;      SG311     CG3C53       HGA1
   26    11     9	5 ;      NG3P3     CG3C53      NG3P2
   26    11    35	5 ;      NG3P3     CG3C53       HGA1
    9    11    35	5 ;      NG3P2     CG3C53       HGA1
   13    12    11	5 ;     CG3C52      SG311     CG3C53
   12    13     8	5 ;      SG311     CG3C52     CG3C50
   12    13    36	5 ;      SG311     CG3C52       HGA2
   12    13    37	5 ;      SG311     CG3C52       HGA2
    8    13    36	5 ;     CG3C50     CG3C52       HGA2
    8    13    37	5 ;     CG3C50     CG3C52       HGA2
   36    13    37	5 ;       HGA2     CG3C52       HGA2
    6    14    38	5 ;      CG301      CG331       HGA3
    6    14    39	5 ;      CG301      CG331       HGA3
    6    14    40	5 ;      CG301      CG331       HGA3
   38    14    39	5 ;       HGA3      CG331       HGA3
   38    14    40	5 ;       HGA3      CG331       HGA3
   39    14    40	5 ;       HGA3      CG331       HGA3
    6    15    41	5 ;      CG301      CG331       HGA3
    6    15    42	5 ;      CG301      CG331       HGA3
    6    15    43	5 ;      CG301      CG331       HGA3
   41    15    42	5 ;       HGA3      CG331       HGA3
   41    15    43	5 ;       HGA3      CG331       HGA3
   42    15    43	5 ;       HGA3      CG331       HGA3
    4    16    17	5 ;     CG2R61     CG2R61     CG2R61
    4    16    44	5 ;     CG2R61     CG2R61      HGR61
   17    16    44	5 ;     CG2R61     CG2R61      HGR61
    1    17    16	5 ;     CG2R61     CG2R61     CG2R61
    1    17    45	5 ;     CG2R61     CG2R61      HGR61
   16    17    45	5 ;     CG2R61     CG2R61      HGR61
   24    18     1	5 ;     CG2D1O     CG2DC1     CG2R61
   24    18    19	5 ;     CG2D1O     CG2DC1     CG2DC2
    1    18    19	5 ;     CG2R61     CG2DC1     CG2DC2
   18    19    20	5 ;     CG2DC1     CG2DC2     CG2DC2
   18    19    46	5 ;     CG2DC1     CG2DC2       HGA4
   20    19    46	5 ;     CG2DC2     CG2DC2       HGA4
   22    20    19	5 ;      CG321     CG2DC2     CG2DC2
   22    20    21	5 ;      CG321     CG2DC2      CLGA1
   19    20    21	5 ;     CG2DC2     CG2DC2      CLGA1
   23    22    20	5 ;      NG311      CG321     CG2DC2
   23    22    47	5 ;      NG311      CG321       HGA2
   23    22    50	5 ;      NG311      CG321       HGA2
   20    22    47	5 ;     CG2DC2      CG321       HGA2
   20    22    50	5 ;     CG2DC2      CG321       HGA2
   47    22    50	5 ;       HGA2      CG321       HGA2
   25    23    24	5 ;     HGPAM1      NG311     CG2D1O
   25    23    22	5 ;     HGPAM1      NG311      CG321
   24    23    22	5 ;     CG2D1O      NG311      CG321
   23    24    18	5 ;      NG311     CG2D1O     CG2DC1
   23    24    48	5 ;      NG311     CG2D1O       HGA4
   18    24    48	5 ;     CG2DC1     CG2D1O       HGA4
   11    26    28	5 ;     CG3C53      NG3P3       HGP2
   11    26    27	5 ;     CG3C53      NG3P3       HGP2
   11    26    49	5 ;     CG3C53      NG3P3       HGP2
   28    26    27	5 ;       HGP2      NG3P3       HGP2
   28    26    49	5 ;       HGP2      NG3P3       HGP2
   27    26    49	5 ;       HGP2      NG3P3       HGP2

[ dihedrals ]
;	ai	  aj	ak	  al funct			  c0			c1			  c2			c3			  c4			c5
   18     1     2     3	 9 ;     CG2DC1     CG2R61     CG2R61     CG2R61
   18     1     2    29	 9 ;     CG2DC1     CG2R61     CG2R61      HGR61
   17     1     2     3	 9 ;     CG2R61     CG2R61     CG2R61     CG2R61
   17     1     2    29	 9 ;     CG2R61     CG2R61     CG2R61      HGR61
    2     1    18    24	 9 ;     CG2R61     CG2R61     CG2DC1     CG2D1O
    2     1    18    19	 9 ;     CG2R61     CG2R61     CG2DC1     CG2DC2
   17     1    18    24	 9 ;     CG2R61     CG2R61     CG2DC1     CG2D1O
   17     1    18    19	 9 ;     CG2R61     CG2R61     CG2DC1     CG2DC2
    2     1    17    16	 9 ;     CG2R61     CG2R61     CG2R61     CG2R61
    2     1    17    45	 9 ;     CG2R61     CG2R61     CG2R61      HGR61
   18     1    17    16	 9 ;     CG2DC1     CG2R61     CG2R61     CG2R61
   18     1    17    45	 9 ;     CG2DC1     CG2R61     CG2R61      HGR61
    1     2     3     8	 9 ;     CG2R61     CG2R61     CG2R61     CG3C50
    1     2     3     4	 9 ;     CG2R61     CG2R61     CG2R61     CG2R61
   29     2     3     8	 9 ;      HGR61     CG2R61     CG2R61     CG3C50
   29     2     3     4	 9 ;      HGR61     CG2R61     CG2R61     CG2R61
    2     3     8    13	 9 ;     CG2R61     CG2R61     CG3C50     CG3C52
    2     3     8     9	 9 ;     CG2R61     CG2R61     CG3C50      NG3P2
    2     3     8     7	 9 ;     CG2R61     CG2R61     CG3C50      CG321
    4     3     8    13	 9 ;     CG2R61     CG2R61     CG3C50     CG3C52
    4     3     8     9	 9 ;     CG2R61     CG2R61     CG3C50      NG3P2
    4     3     8     7	 9 ;     CG2R61     CG2R61     CG3C50      CG321
    8     3     4     5	 9 ;     CG3C50     CG2R61     CG2R61      CG321
    8     3     4    16	 9 ;     CG3C50     CG2R61     CG2R61     CG2R61
    2     3     4     5	 9 ;     CG2R61     CG2R61     CG2R61      CG321
    2     3     4    16	 9 ;     CG2R61     CG2R61     CG2R61     CG2R61
    3     4     5     6	 9 ;     CG2R61     CG2R61      CG321      CG301
    3     4     5    30	 9 ;     CG2R61     CG2R61      CG321       HGA2
    3     4     5    31	 9 ;     CG2R61     CG2R61      CG321       HGA2
   16     4     5     6	 9 ;     CG2R61     CG2R61      CG321      CG301
   16     4     5    30	 9 ;     CG2R61     CG2R61      CG321       HGA2
   16     4     5    31	 9 ;     CG2R61     CG2R61      CG321       HGA2
    3     4    16    17	 9 ;     CG2R61     CG2R61     CG2R61     CG2R61
    3     4    16    44	 9 ;     CG2R61     CG2R61     CG2R61      HGR61
    5     4    16    17	 9 ;      CG321     CG2R61     CG2R61     CG2R61
    5     4    16    44	 9 ;      CG321     CG2R61     CG2R61      HGR61
    4     5     6     7	 9 ;     CG2R61      CG321      CG301      CG321
    4     5     6    14	 9 ;     CG2R61      CG321      CG301      CG331
    4     5     6    15	 9 ;     CG2R61      CG321      CG301      CG331
   30     5     6     7	 9 ;       HGA2      CG321      CG301      CG321
   30     5     6    14	 9 ;       HGA2      CG321      CG301      CG331
   30     5     6    15	 9 ;       HGA2      CG321      CG301      CG331
   31     5     6     7	 9 ;       HGA2      CG321      CG301      CG321
   31     5     6    14	 9 ;       HGA2      CG321      CG301      CG331
   31     5     6    15	 9 ;       HGA2      CG321      CG301      CG331
   14     6     7     8	 9 ;      CG331      CG301      CG321     CG3C50
   14     6     7    32	 9 ;      CG331      CG301      CG321       HGA2
   14     6     7    33	 9 ;      CG331      CG301      CG321       HGA2
   15     6     7     8	 9 ;      CG331      CG301      CG321     CG3C50
   15     6     7    32	 9 ;      CG331      CG301      CG321       HGA2
   15     6     7    33	 9 ;      CG331      CG301      CG321       HGA2
    5     6     7     8	 9 ;      CG321      CG301      CG321     CG3C50
    5     6     7    32	 9 ;      CG321      CG301      CG321       HGA2
    5     6     7    33	 9 ;      CG321      CG301      CG321       HGA2
    7     6    14    38	 9 ;      CG321      CG301      CG331       HGA3
    7     6    14    39	 9 ;      CG321      CG301      CG331       HGA3
    7     6    14    40	 9 ;      CG321      CG301      CG331       HGA3
   15     6    14    38	 9 ;      CG331      CG301      CG331       HGA3
   15     6    14    39	 9 ;      CG331      CG301      CG331       HGA3
   15     6    14    40	 9 ;      CG331      CG301      CG331       HGA3
    5     6    14    38	 9 ;      CG321      CG301      CG331       HGA3
    5     6    14    39	 9 ;      CG321      CG301      CG331       HGA3
    5     6    14    40	 9 ;      CG321      CG301      CG331       HGA3
    7     6    15    41	 9 ;      CG321      CG301      CG331       HGA3
    7     6    15    42	 9 ;      CG321      CG301      CG331       HGA3
    7     6    15    43	 9 ;      CG321      CG301      CG331       HGA3
   14     6    15    41	 9 ;      CG331      CG301      CG331       HGA3
   14     6    15    42	 9 ;      CG331      CG301      CG331       HGA3
   14     6    15    43	 9 ;      CG331      CG301      CG331       HGA3
    5     6    15    41	 9 ;      CG321      CG301      CG331       HGA3
    5     6    15    42	 9 ;      CG321      CG301      CG331       HGA3
    5     6    15    43	 9 ;      CG321      CG301      CG331       HGA3
    6     7     8    13	 9 ;      CG301      CG321     CG3C50     CG3C52
    6     7     8     9	 9 ;      CG301      CG321     CG3C50      NG3P2
    6     7     8     3	 9 ;      CG301      CG321     CG3C50     CG2R61
   32     7     8    13	 9 ;       HGA2      CG321     CG3C50     CG3C52
   32     7     8     9	 9 ;       HGA2      CG321     CG3C50      NG3P2
   32     7     8     3	 9 ;       HGA2      CG321     CG3C50     CG2R61
   33     7     8    13	 9 ;       HGA2      CG321     CG3C50     CG3C52
   33     7     8     9	 9 ;       HGA2      CG321     CG3C50      NG3P2
   33     7     8     3	 9 ;       HGA2      CG321     CG3C50     CG2R61
    9     8    13    12	 9 ;      NG3P2     CG3C50     CG3C52      SG311
    9     8    13    36	 9 ;      NG3P2     CG3C50     CG3C52       HGA2
    9     8    13    37	 9 ;      NG3P2     CG3C50     CG3C52       HGA2
    7     8    13    12	 9 ;      CG321     CG3C50     CG3C52      SG311
    7     8    13    36	 9 ;      CG321     CG3C50     CG3C52       HGA2
    7     8    13    37	 9 ;      CG321     CG3C50     CG3C52       HGA2
    3     8    13    12	 9 ;     CG2R61     CG3C50     CG3C52      SG311
    3     8    13    36	 9 ;     CG2R61     CG3C50     CG3C52       HGA2
    3     8    13    37	 9 ;     CG2R61     CG3C50     CG3C52       HGA2
   13     8     9    11	 9 ;     CG3C52     CG3C50      NG3P2     CG3C53
   13     8     9    10	 9 ;     CG3C52     CG3C50      NG3P2       HGP2
   13     8     9    34	 9 ;     CG3C52     CG3C50      NG3P2       HGP2
    7     8     9    11	 9 ;      CG321     CG3C50      NG3P2     CG3C53
    7     8     9    10	 9 ;      CG321     CG3C50      NG3P2       HGP2
    7     8     9    34	 9 ;      CG321     CG3C50      NG3P2       HGP2
    3     8     9    11	 9 ;     CG2R61     CG3C50      NG3P2     CG3C53
    3     8     9    10	 9 ;     CG2R61     CG3C50      NG3P2       HGP2
    3     8     9    34	 9 ;     CG2R61     CG3C50      NG3P2       HGP2
    8     9    11    12	 9 ;     CG3C50      NG3P2     CG3C53      SG311
    8     9    11    26	 9 ;     CG3C50      NG3P2     CG3C53      NG3P3
    8     9    11    35	 9 ;     CG3C50      NG3P2     CG3C53       HGA1
   10     9    11    12	 9 ;       HGP2      NG3P2     CG3C53      SG311
   10     9    11    26	 9 ;       HGP2      NG3P2     CG3C53      NG3P3
   10     9    11    35	 9 ;       HGP2      NG3P2     CG3C53       HGA1
   34     9    11    12	 9 ;       HGP2      NG3P2     CG3C53      SG311
   34     9    11    26	 9 ;       HGP2      NG3P2     CG3C53      NG3P3
   34     9    11    35	 9 ;       HGP2      NG3P2     CG3C53       HGA1
   26    11    12    13	 9 ;      NG3P3     CG3C53      SG311     CG3C52
    9    11    12    13	 9 ;      NG3P2     CG3C53      SG311     CG3C52
   35    11    12    13	 9 ;       HGA1     CG3C53      SG311     CG3C52
   12    11    26    28	 9 ;      SG311     CG3C53      NG3P3       HGP2
   12    11    26    27	 9 ;      SG311     CG3C53      NG3P3       HGP2
   12    11    26    49	 9 ;      SG311     CG3C53      NG3P3       HGP2
    9    11    26    28	 9 ;      NG3P2     CG3C53      NG3P3       HGP2
    9    11    26    27	 9 ;      NG3P2     CG3C53      NG3P3       HGP2
    9    11    26    49	 9 ;      NG3P2     CG3C53      NG3P3       HGP2
   35    11    26    28	 9 ;       HGA1     CG3C53      NG3P3       HGP2
   35    11    26    27	 9 ;       HGA1     CG3C53      NG3P3       HGP2
   35    11    26    49	 9 ;       HGA1     CG3C53      NG3P3       HGP2
   11    12    13     8	 9 ;     CG3C53      SG311     CG3C52     CG3C50
   11    12    13    36	 9 ;     CG3C53      SG311     CG3C52       HGA2
   11    12    13    37	 9 ;     CG3C53      SG311     CG3C52       HGA2
    4    16    17     1	 9 ;     CG2R61     CG2R61     CG2R61     CG2R61
    4    16    17    45	 9 ;     CG2R61     CG2R61     CG2R61      HGR61
   44    16    17     1	 9 ;      HGR61     CG2R61     CG2R61     CG2R61
   44    16    17    45	 9 ;      HGR61     CG2R61     CG2R61      HGR61
    1    18    24    23	 9 ;     CG2R61     CG2DC1     CG2D1O      NG311
    1    18    24    48	 9 ;     CG2R61     CG2DC1     CG2D1O       HGA4
   19    18    24    23	 9 ;     CG2DC2     CG2DC1     CG2D1O      NG311
   19    18    24    48	 9 ;     CG2DC2     CG2DC1     CG2D1O       HGA4
   24    18    19    20	 9 ;     CG2D1O     CG2DC1     CG2DC2     CG2DC2
   24    18    19    46	 9 ;     CG2D1O     CG2DC1     CG2DC2       HGA4
    1    18    19    20	 9 ;     CG2R61     CG2DC1     CG2DC2     CG2DC2
    1    18    19    46	 9 ;     CG2R61     CG2DC1     CG2DC2       HGA4
   18    19    20    22	 9 ;     CG2DC1     CG2DC2     CG2DC2      CG321
   18    19    20    21	 9 ;     CG2DC1     CG2DC2     CG2DC2      CLGA1
   46    19    20    22	 9 ;       HGA4     CG2DC2     CG2DC2      CG321
   46    19    20    21	 9 ;       HGA4     CG2DC2     CG2DC2      CLGA1
   19    20    22    23	 9 ;     CG2DC2     CG2DC2      CG321      NG311
   19    20    22    47	 9 ;     CG2DC2     CG2DC2      CG321       HGA2
   19    20    22    50	 9 ;     CG2DC2     CG2DC2      CG321       HGA2
   21    20    22    23	 9 ;      CLGA1     CG2DC2      CG321      NG311
   21    20    22    47	 9 ;      CLGA1     CG2DC2      CG321       HGA2
   21    20    22    50	 9 ;      CLGA1     CG2DC2      CG321       HGA2
   20    22    23    25	 9 ;     CG2DC2      CG321      NG311     HGPAM1
   20    22    23    24	 9 ;     CG2DC2      CG321      NG311     CG2D1O
   47    22    23    25	 9 ;       HGA2      CG321      NG311     HGPAM1
   47    22    23    24	 9 ;       HGA2      CG321      NG311     CG2D1O
   50    22    23    25	 9 ;       HGA2      CG321      NG311     HGPAM1
   50    22    23    24	 9 ;       HGA2      CG321      NG311     CG2D1O
   25    23    24    18	 9 ;     HGPAM1      NG311     CG2D1O     CG2DC1
   25    23    24    48	 9 ;     HGPAM1      NG311     CG2D1O       HGA4
   22    23    24    18	 9 ;      CG321      NG311     CG2D1O     CG2DC1
   22    23    24    48	 9 ;      CG321      NG311     CG2D1O       HGA4

[ dihedrals ]
;	ai	  aj	ak	  al funct			  c0			c1			  c2			c3
   24    18    23    48	 2

[ virtual_sites2 ]
; Site   from				funct a
   51    21    20     2   -0.164

[ exclusions ]
;	ai	  aj
   21    51
   51    20
   51    22
   51    19
   51    18
   51    46
   51    23
   51    47
   51    50

