Gravel Rubs Often Many Awfully Cauterized Sores
   51
    1LIG     C1    1  -1.392   0.350  -1.544
    1LIG     C2    2  -1.386   0.463  -1.629
    1LIG     C3    3  -1.498   0.547  -1.654
    1LIG     C4    4  -1.622   0.499  -1.599
    1LIG     C5    5  -1.760   0.545  -1.648
    1LIG     C6    6  -1.744   0.686  -1.701
    1LIG     C7    7  -1.630   0.670  -1.815
    1LIG     C8    8  -1.490   0.675  -1.746
    1LIG     N1    9  -1.505   0.807  -1.678
    1LIG    HN3   10  -1.562   0.819  -1.594
    1LIG     C9   11  -1.442   0.904  -1.730
    1LIG      S   12  -1.298   0.861  -1.816
    1LIG    C10   13  -1.367   0.691  -1.840
    1LIG    C11   14  -1.723   0.770  -1.567
    1LIG    C12   15  -1.869   0.746  -1.766
    1LIG    C13   16  -1.625   0.398  -1.503
    1LIG    C14   17  -1.510   0.328  -1.472
    1LIG    C15   18  -1.282   0.251  -1.533
    1LIG    C16   19  -1.280   0.155  -1.428
    1LIG    C17   20  -1.178   0.061  -1.420
    1LIG     CL   21  -1.176  -0.053  -1.291
    1LIG    C18   22  -1.081   0.061  -1.518
    1LIG     N2   23  -1.077   0.148  -1.621
    1LIG    C19   24  -1.177   0.240  -1.625
    1LIG    HN4   25  -1.004   0.144  -1.692
    1LIG     N3   26  -1.482   1.034  -1.717
    1LIG     H1   27  -1.498   1.056  -1.622
    1LIG     H2   28  -1.577   1.035  -1.755
    1LIG     HC   29  -1.293   0.487  -1.677
    1LIG    HC2   30  -1.794   0.479  -1.727
    1LIG    HC3   31  -1.831   0.544  -1.565
    1LIG    HC4   32  -1.638   0.751  -1.887
    1LIG    HC5   33  -1.643   0.574  -1.865
    1LIG    HN2   34  -1.425   0.786  -1.620
    1LIG    HC1   35  -1.501   0.894  -1.821
    1LIG    HC6   36  -1.291   0.617  -1.815
    1LIG    HC7   37  -1.398   0.678  -1.944
    1LIG    HC8   38  -1.814   0.766  -1.508
    1LIG    HC9   39  -1.700   0.873  -1.592
    1LIG   HC10   40  -1.641   0.726  -1.510
    1LIG   HC11   41  -1.890   0.694  -1.859
    1LIG   HC12   42  -1.954   0.736  -1.699
    1LIG   HC13   43  -1.852   0.852  -1.787
    1LIG   HC14   44  -1.718   0.375  -1.452
    1LIG   HC15   45  -1.512   0.256  -1.392
    1LIG   HC16   46  -1.359   0.156  -1.354
    1LIG   HC17   47  -1.002  -0.014  -1.511
    1LIG   HC18   48  -1.174   0.312  -1.706
    1LIG    HN1   49  -1.421   1.100  -1.763
    1LIG    H26   50  -1.140  -0.008  -1.577
    1LIG    LP1   51  -1.174  -0.161  -1.168
   0.00000   0.00000   0.00000
