Getting the Right Output Means no Artefacts in Calculating Stuff
   89
    1LIG     C1    1  -1.815   0.535  -1.366
    1LIG     C2    2  -1.801   0.687  -1.403
    1LIG     C3    3  -1.904   0.766  -1.490
    1LIG     C4    4  -1.845   0.906  -1.530
    1LIG     N1    5  -1.729   0.883  -1.619
    1LIG     C5    6  -1.762   0.818  -1.748
    1LIG     C6    7  -1.838   0.684  -1.722
    1LIG     N2    8  -1.947   0.698  -1.618
    1LIG     H1    9  -1.992   0.608  -1.592
    1LIG     H2   10  -2.025   0.752  -1.658
    1LIG      S   11  -1.586   0.968  -1.596
    1LIG     O1   12  -1.576   0.995  -1.453
    1LIG     O2   13  -1.591   1.075  -1.691
    1LIG     C7   14  -1.457   0.856  -1.642
    1LIG     C8   15  -1.424   0.750  -1.556
    1LIG     C9   16  -1.324   0.660  -1.592
    1LIG    C10   17  -1.259   0.672  -1.715
    1LIG    C11   18  -1.296   0.773  -1.803
    1LIG    C12   19  -1.395   0.865  -1.768
    1LIG     O3   20  -1.797   0.757  -1.276
    1LIG     H3   21  -1.884   0.799  -1.260
    1LIG     N3   22  -1.710   0.449  -1.427
    1LIG    C13   23  -1.722   0.383  -1.547
    1LIG     O4   24  -1.830   0.382  -1.607
    1LIG     H4   25  -1.619   0.454  -1.382
    1LIG    C14   26  -1.599   0.313  -1.602
    1LIG    C15   27  -1.547   0.193  -1.551
    1LIG    C16   28  -1.433   0.132  -1.608
    1LIG    C17   29  -1.380   0.185  -1.726
    1LIG    C18   30  -1.425   0.307  -1.776
    1LIG    C19   31  -1.533   0.372  -1.712
    1LIG    C20   32  -1.356   0.369  -1.894
    1LIG    C21   33  -1.374   0.010  -1.546
    1LIG     O5   34  -1.422  -0.098  -1.584
    1LIG     N4   35  -1.272   0.019  -1.449
    1LIG    C22   36  -1.219  -0.107  -1.394
    1LIG    C23   37  -1.105  -0.169  -1.476
    1LIG    C24   38  -1.149  -0.291  -1.554
    1LIG    C25   39  -1.237   0.142  -1.373
    1LIG    C26   40  -1.115   0.216  -1.429
    1LIG    C27   41  -1.152   0.349  -1.492
    1LIG    C28   42  -1.840   0.493  -1.218
    1LIG    C29   43  -1.973   0.443  -1.163
    1LIG    C30   44  -2.100   0.469  -1.216
    1LIG    C31   45  -2.214   0.406  -1.162
    1LIG     F1   46  -2.334   0.431  -1.217
    1LIG    C32   47  -2.205   0.317  -1.056
    1LIG    C33   48  -2.081   0.293  -1.001
    1LIG     F2   49  -2.070   0.208  -0.898
    1LIG    C34   50  -1.967   0.355  -1.052
    1LIG     HC   51  -1.906   0.505  -1.417
    1LIG    HC1   52  -1.703   0.700  -1.450
    1LIG    HC2   53  -1.993   0.783  -1.429
    1LIG    HC3   54  -1.814   0.960  -1.441
    1LIG    HC4   55  -1.921   0.964  -1.583
    1LIG    HC5   56  -1.825   0.885  -1.806
    1LIG    HC6   57  -1.670   0.797  -1.802
    1LIG    HC7   58  -1.767   0.610  -1.687
    1LIG    HC8   59  -1.883   0.650  -1.815
    1LIG    HC9   60  -1.476   0.739  -1.462
    1LIG   HC10   61  -1.297   0.580  -1.524
    1LIG   HC11   62  -1.180   0.603  -1.741
    1LIG   HC12   63  -1.248   0.780  -1.900
    1LIG   HC13   64  -1.425   0.943  -1.837
    1LIG   HC14   65  -1.595   0.146  -1.466
    1LIG   HC15   66  -1.303   0.130  -1.779
    1LIG   HC16   67  -1.565   0.468  -1.748
    1LIG   HC17   68  -1.183  -0.088  -1.293
    1LIG   HC18   69  -1.301  -0.180  -1.388
    1LIG   HC19   70  -1.069  -0.094  -1.546
    1LIG   HC20   71  -1.025  -0.197  -1.409
    1LIG   HC21   72  -1.217   0.114  -1.270
    1LIG   HC22   73  -1.323   0.209  -1.375
    1LIG   HC23   74  -1.067   0.153  -1.504
    1LIG   HC24   75  -1.044   0.234  -1.347
    1LIG   HC25   76  -1.814   0.580  -1.158
    1LIG   HC26   77  -1.766   0.416  -1.194
    1LIG   HC27   78  -2.110   0.538  -1.298
    1LIG   HC28   79  -2.294   0.268  -1.017
    1LIG   HC29   80  -1.871   0.335  -1.007
    1LIG   HC30   81  -1.404   0.464  -1.919
    1LIG   HC31   82  -1.363   0.302  -1.979
    1LIG   HC32   83  -1.251   0.387  -1.870
    1LIG   HC33   84  -1.062   0.398  -1.529
    1LIG   HC34   85  -1.200   0.413  -1.417
    1LIG   HC35   86  -1.222   0.332  -1.574
    1LIG   HC36   87  -1.064  -0.330  -1.611
    1LIG   HC37   88  -1.185  -0.367  -1.486
    1LIG   HC38   89  -1.229  -0.264  -1.623
   0.00000   0.00000   0.00000
