; Created by cgenff_charmm2gmx.py

[ moleculetype ]
; Name			   nrexcl
LIG				 3

[ atoms ]
;	 nr		  type	resnr residue  atom   cgnr	   charge		mass  typeB    chargeB		massB
; residue	 1 LIG rtp LIG q	qsum
     1      CG311      1    LIG     C1      1     -0.016     12.011   ;
     2      CG311      1    LIG     C2      2      0.106     12.011   ;
     3      CG314      1    LIG     C3      3      0.093     12.011   ;
     4      CG321      1    LIG     C4      4      0.014     12.011   ;
     5      NG301      1    LIG     N1      5     -0.279     14.007   ;
     6      CG321      1    LIG     C5      6      0.066     12.011   ;
     7      CG324      1    LIG     C6      7      0.134     12.011   ;
     8      NG3P2      1    LIG     N2      8     -0.354     14.007   ;
     9       HGP2      1    LIG     H1      9      0.318      1.008   ;
    10       HGP2      1    LIG     H2     10      0.318      1.008   ;
    11      SG3O2      1    LIG      S     11      0.526     32.060   ;
    12      OG2P1      1    LIG     O1     12     -0.357     15.999   ;
    13      OG2P1      1    LIG     O2     13     -0.357     15.999   ;
    14     CG2R61      1    LIG     C7     14      0.123     12.011   ;
    15     CG2R61      1    LIG     C8     15     -0.106     12.011   ;
    16     CG2R61      1    LIG     C9     16     -0.113     12.011   ;
    17     CG2R61      1    LIG    C10     17     -0.116     12.011   ;
    18     CG2R61      1    LIG    C11     18     -0.113     12.011   ;
    19     CG2R61      1    LIG    C12     19     -0.106     12.011   ;
    20      OG311      1    LIG     O3     20     -0.598     15.999   ;
    21       HGP1      1    LIG     H3     21      0.422      1.008   ;
    22      NG2S1      1    LIG     N3     22     -0.226     14.007   ;
    23      CG2O1      1    LIG    C13     23      0.302     12.011   ;
    24      OG2D1      1    LIG     O4     24     -0.463     15.999   ;
    25       HGP1      1    LIG     H4     25      0.262      1.008   ;
    26     CG2R61      1    LIG    C14     26     -0.120     12.011   ;
    27     CG2R61      1    LIG    C15     27     -0.003     12.011   ;
    28     CG2R61      1    LIG    C16     28     -0.179     12.011   ;
    29     CG2R61      1    LIG    C17     29     -0.064     12.011   ;
    30     CG2R61      1    LIG    C18     30      0.038     12.011   ;
    31     CG2R61      1    LIG    C19     31     -0.065     12.011   ;
    32      CG331      1    LIG    C20     32     -0.264     12.011   ;
    33      CG2O1      1    LIG    C21     33      0.400     12.011   ;
    34      OG2D1      1    LIG     O5     34     -0.476     15.999   ;
    35      NG2S0      1    LIG     N4     35     -0.418     14.007   ;
    36      CG321      1    LIG    C22     36      0.096     12.011   ;
    37      CG321      1    LIG    C23     37     -0.170     12.011   ;
    38      CG331      1    LIG    C24     38     -0.285     12.011   ;
    39      CG321      1    LIG    C25     39      0.096     12.011   ;
    40      CG321      1    LIG    C26     40     -0.170     12.011   ;
    41      CG331      1    LIG    C27     41     -0.285     12.011   ;
    42      CG321      1    LIG    C28     42     -0.095     12.011   ;
    43     CG2R61      1    LIG    C29     43      0.057     12.011   ;
    44     CG2R61      1    LIG    C30     44     -0.218     12.011   ;
    45     CG2R66      1    LIG    C31     45      0.261     12.011   ;
    46       FGR1      1    LIG     F1     46     -0.210     18.998   ;
    47     CG2R61      1    LIG    C32     47     -0.240     12.011   ;
    48     CG2R66      1    LIG    C33     48      0.261     12.011   ;
    49       FGR1      1    LIG     F2     49     -0.210     18.998   ;
    50     CG2R61      1    LIG    C34     50     -0.218     12.011   ;
    51       HGA1      1    LIG     HC     51      0.090      1.008   ;
    52       HGA1      1    LIG    HC1     52      0.090      1.008   ;
    53       HGA1      1    LIG    HC2     53      0.109      1.008   ;
    54       HGA2      1    LIG    HC3     54      0.090      1.008   ;
    55       HGA2      1    LIG    HC4     55      0.090      1.008   ;
    56       HGA2      1    LIG    HC5     56      0.090      1.008   ;
    57       HGA2      1    LIG    HC6     57      0.090      1.008   ;
    58       HGA2      1    LIG    HC7     58      0.090      1.008   ;
    59       HGA2      1    LIG    HC8     59      0.090      1.008   ;
    60      HGR61      1    LIG    HC9     60      0.116      1.008   ;
    61      HGR61      1    LIG   HC10     61      0.116      1.008   ;
    62      HGR61      1    LIG   HC11     62      0.116      1.008   ;
    63      HGR61      1    LIG   HC12     63      0.116      1.008   ;
    64      HGR61      1    LIG   HC13     64      0.116      1.008   ;
    65      HGR61      1    LIG   HC14     65      0.116      1.008   ;
    66      HGR61      1    LIG   HC15     66      0.116      1.008   ;
    67      HGR61      1    LIG   HC16     67      0.116      1.008   ;
    68       HGA2      1    LIG   HC17     68      0.090      1.008   ;
    69       HGA2      1    LIG   HC18     69      0.090      1.008   ;
    70       HGA2      1    LIG   HC19     70      0.090      1.008   ;
    71       HGA2      1    LIG   HC20     71      0.090      1.008   ;
    72       HGA2      1    LIG   HC21     72      0.090      1.008   ;
    73       HGA2      1    LIG   HC22     73      0.090      1.008   ;
    74       HGA2      1    LIG   HC23     74      0.090      1.008   ;
    75       HGA2      1    LIG   HC24     75      0.090      1.008   ;
    76       HGA2      1    LIG   HC25     76      0.090      1.008   ;
    77       HGA2      1    LIG   HC26     77      0.090      1.008   ;
    78      HGR62      1    LIG   HC27     78      0.174      1.008   ;
    79      HGR62      1    LIG   HC28     79      0.186      1.008   ;
    80      HGR62      1    LIG   HC29     80      0.174      1.008   ;
    81       HGA3      1    LIG   HC30     81      0.090      1.008   ;
    82       HGA3      1    LIG   HC31     82      0.090      1.008   ;
    83       HGA3      1    LIG   HC32     83      0.090      1.008   ;
    84       HGA3      1    LIG   HC33     84      0.090      1.008   ;
    85       HGA3      1    LIG   HC34     85      0.090      1.008   ;
    86       HGA3      1    LIG   HC35     86      0.090      1.008   ;
    87       HGA3      1    LIG   HC36     87      0.090      1.008   ;
    88       HGA3      1    LIG   HC37     88      0.090      1.008   ;
    89       HGA3      1    LIG   HC38     89      0.090      1.008   ;

[ bonds ]
;	ai	  aj funct			  c0			c1			  c2			c3
    1    22	 1 ;       CG311      NG2S1
    1     2	 1 ;       CG311      CG311
    1    42	 1 ;       CG311      CG321
    1    51	 1 ;       CG311       HGA1
    2     3	 1 ;       CG311      CG314
    2    20	 1 ;       CG311      OG311
    2    52	 1 ;       CG311       HGA1
    3     8	 1 ;       CG314      NG3P2
    3     4	 1 ;       CG314      CG321
    3    53	 1 ;       CG314       HGA1
    4     5	 1 ;       CG321      NG301
    4    54	 1 ;       CG321       HGA2
    4    55	 1 ;       CG321       HGA2
    5     6	 1 ;       NG301      CG321
    5    11	 1 ;       NG301      SG3O2
    6     7	 1 ;       CG321      CG324
    6    56	 1 ;       CG321       HGA2
    6    57	 1 ;       CG321       HGA2
    7     8	 1 ;       CG324      NG3P2
    7    58	 1 ;       CG324       HGA2
    7    59	 1 ;       CG324       HGA2
    8    10	 1 ;       NG3P2       HGP2
    8     9	 1 ;       NG3P2       HGP2
   11    14	 1 ;       SG3O2     CG2R61
   11    13	 1 ;       SG3O2      OG2P1
   11    12	 1 ;       SG3O2      OG2P1
   14    19	 1 ;      CG2R61     CG2R61
   14    15	 1 ;      CG2R61     CG2R61
   15    16	 1 ;      CG2R61     CG2R61
   15    60	 1 ;      CG2R61      HGR61
   16    17	 1 ;      CG2R61     CG2R61
   16    61	 1 ;      CG2R61      HGR61
   17    18	 1 ;      CG2R61     CG2R61
   17    62	 1 ;      CG2R61      HGR61
   18    19	 1 ;      CG2R61     CG2R61
   18    63	 1 ;      CG2R61      HGR61
   19    64	 1 ;      CG2R61      HGR61
   20    21	 1 ;       OG311       HGP1
   22    23	 1 ;       NG2S1      CG2O1
   22    25	 1 ;       NG2S1       HGP1
   23    26	 1 ;       CG2O1     CG2R61
   23    24	 1 ;       CG2O1      OG2D1
   26    31	 1 ;      CG2R61     CG2R61
   26    27	 1 ;      CG2R61     CG2R61
   27    28	 1 ;      CG2R61     CG2R61
   27    65	 1 ;      CG2R61      HGR61
   28    29	 1 ;      CG2R61     CG2R61
   28    33	 1 ;      CG2R61      CG2O1
   29    30	 1 ;      CG2R61     CG2R61
   29    66	 1 ;      CG2R61      HGR61
   30    32	 1 ;      CG2R61      CG331
   30    31	 1 ;      CG2R61     CG2R61
   31    67	 1 ;      CG2R61      HGR61
   32    81	 1 ;       CG331       HGA3
   32    82	 1 ;       CG331       HGA3
   32    83	 1 ;       CG331       HGA3
   33    34	 1 ;       CG2O1      OG2D1
   33    35	 1 ;       CG2O1      NG2S0
   35    36	 1 ;       NG2S0      CG321
   35    39	 1 ;       NG2S0      CG321
   36    37	 1 ;       CG321      CG321
   36    68	 1 ;       CG321       HGA2
   36    69	 1 ;       CG321       HGA2
   37    38	 1 ;       CG321      CG331
   37    70	 1 ;       CG321       HGA2
   37    71	 1 ;       CG321       HGA2
   38    87	 1 ;       CG331       HGA3
   38    88	 1 ;       CG331       HGA3
   38    89	 1 ;       CG331       HGA3
   39    40	 1 ;       CG321      CG321
   39    72	 1 ;       CG321       HGA2
   39    73	 1 ;       CG321       HGA2
   40    41	 1 ;       CG321      CG331
   40    74	 1 ;       CG321       HGA2
   40    75	 1 ;       CG321       HGA2
   41    84	 1 ;       CG331       HGA3
   41    85	 1 ;       CG331       HGA3
   41    86	 1 ;       CG331       HGA3
   42    43	 1 ;       CG321     CG2R61
   42    76	 1 ;       CG321       HGA2
   42    77	 1 ;       CG321       HGA2
   43    44	 1 ;      CG2R61     CG2R61
   43    50	 1 ;      CG2R61     CG2R61
   44    45	 1 ;      CG2R61     CG2R66
   44    78	 1 ;      CG2R61      HGR62
   45    46	 1 ;      CG2R66       FGR1
   45    47	 1 ;      CG2R66     CG2R61
   47    48	 1 ;      CG2R61     CG2R66
   47    79	 1 ;      CG2R61      HGR62
   48    50	 1 ;      CG2R66     CG2R61
   48    49	 1 ;      CG2R66       FGR1
   50    80	 1 ;      CG2R61      HGR62

[ pairs ]
;	ai	  aj funct			  c0			c1			  c2			c3
    1     8	 1
    1     4	 1
    1    53	 1
    1    21	 1
    1    26	 1
    1    24	 1
    1    44	 1
    1    50	 1
    2    23	 1
    2    25	 1
    2    43	 1
    2    76	 1
    2    77	 1
    2     7	 1
    2    10	 1
    2     9	 1
    2     5	 1
    2    54	 1
    2    55	 1
    3    22	 1
    3    42	 1
    3    51	 1
    3    21	 1
    3     6	 1
    3    11	 1
    3    58	 1
    3    59	 1
    4    20	 1
    4    52	 1
    4     7	 1
    4    10	 1
    4     9	 1
    4    56	 1
    4    57	 1
    4    14	 1
    4    13	 1
    4    12	 1
    5     8	 1
    5    53	 1
    5    58	 1
    5    59	 1
    5    19	 1
    5    15	 1
    6    54	 1
    6    55	 1
    6    14	 1
    6    13	 1
    6    12	 1
    6    10	 1
    6     9	 1
    7    53	 1
    7    11	 1
    8    20	 1
    8    52	 1
    8    54	 1
    8    55	 1
    8    56	 1
    8    57	 1
    9    53	 1
    9    58	 1
    9    59	 1
   10    53	 1
   10    58	 1
   10    59	 1
   11    54	 1
   11    55	 1
   11    56	 1
   11    57	 1
   11    18	 1
   11    64	 1
   11    16	 1
   11    60	 1
   12    19	 1
   12    15	 1
   13    19	 1
   13    15	 1
   14    17	 1
   14    61	 1
   14    63	 1
   15    18	 1
   15    64	 1
   15    62	 1
   16    19	 1
   16    63	 1
   17    60	 1
   17    64	 1
   18    61	 1
   19    60	 1
   19    62	 1
   20    22	 1
   20    42	 1
   20    51	 1
   20    53	 1
   21    52	 1
   22    52	 1
   22    43	 1
   22    76	 1
   22    77	 1
   22    31	 1
   22    27	 1
   23    42	 1
   23    51	 1
   23    30	 1
   23    67	 1
   23    28	 1
   23    65	 1
   24    25	 1
   24    31	 1
   24    27	 1
   25    42	 1
   25    51	 1
   25    26	 1
   26    29	 1
   26    33	 1
   26    32	 1
   27    30	 1
   27    67	 1
   27    66	 1
   27    34	 1
   27    35	 1
   28    31	 1
   28    32	 1
   28    36	 1
   28    39	 1
   29    65	 1
   29    34	 1
   29    35	 1
   29    81	 1
   29    82	 1
   29    83	 1
   29    67	 1
   30    33	 1
   31    65	 1
   31    66	 1
   31    81	 1
   31    82	 1
   31    83	 1
   32    66	 1
   32    67	 1
   33    65	 1
   33    66	 1
   33    37	 1
   33    68	 1
   33    69	 1
   33    40	 1
   33    72	 1
   33    73	 1
   34    36	 1
   34    39	 1
   35    38	 1
   35    70	 1
   35    71	 1
   35    41	 1
   35    74	 1
   35    75	 1
   36    40	 1
   36    72	 1
   36    73	 1
   36    87	 1
   36    88	 1
   36    89	 1
   37    39	 1
   38    68	 1
   38    69	 1
   39    68	 1
   39    69	 1
   39    84	 1
   39    85	 1
   39    86	 1
   41    72	 1
   41    73	 1
   42    52	 1
   42    45	 1
   42    78	 1
   42    48	 1
   42    80	 1
   43    51	 1
   43    46	 1
   43    47	 1
   43    49	 1
   44    76	 1
   44    77	 1
   44    48	 1
   44    80	 1
   44    79	 1
   45    50	 1
   45    49	 1
   46    78	 1
   46    48	 1
   46    79	 1
   47    78	 1
   47    80	 1
   49    79	 1
   49    80	 1
   50    76	 1
   50    77	 1
   50    78	 1
   50    79	 1
   51    52	 1
   51    76	 1
   51    77	 1
   52    53	 1
   53    54	 1
   53    55	 1
   56    58	 1
   56    59	 1
   57    58	 1
   57    59	 1
   60    61	 1
   61    62	 1
   62    63	 1
   63    64	 1
   68    70	 1
   68    71	 1
   69    70	 1
   69    71	 1
   70    87	 1
   70    88	 1
   70    89	 1
   71    87	 1
   71    88	 1
   71    89	 1
   72    74	 1
   72    75	 1
   73    74	 1
   73    75	 1
   74    84	 1
   74    85	 1
   74    86	 1
   75    84	 1
   75    85	 1
   75    86	 1

[ angles ]
;	ai	  aj	ak funct			c0			  c1			c2			  c3
   22     1     2	5 ;      NG2S1      CG311      CG311
   22     1    42	5 ;      NG2S1      CG311      CG321
   22     1    51	5 ;      NG2S1      CG311       HGA1
    2     1    42	5 ;      CG311      CG311      CG321
    2     1    51	5 ;      CG311      CG311       HGA1
   42     1    51	5 ;      CG321      CG311       HGA1
    3     2     1	5 ;      CG314      CG311      CG311
    3     2    20	5 ;      CG314      CG311      OG311
    3     2    52	5 ;      CG314      CG311       HGA1
    1     2    20	5 ;      CG311      CG311      OG311
    1     2    52	5 ;      CG311      CG311       HGA1
   20     2    52	5 ;      OG311      CG311       HGA1
    8     3     4	5 ;      NG3P2      CG314      CG321
    8     3     2	5 ;      NG3P2      CG314      CG311
    8     3    53	5 ;      NG3P2      CG314       HGA1
    4     3     2	5 ;      CG321      CG314      CG311
    4     3    53	5 ;      CG321      CG314       HGA1
    2     3    53	5 ;      CG311      CG314       HGA1
    5     4     3	5 ;      NG301      CG321      CG314
    5     4    54	5 ;      NG301      CG321       HGA2
    5     4    55	5 ;      NG301      CG321       HGA2
    3     4    54	5 ;      CG314      CG321       HGA2
    3     4    55	5 ;      CG314      CG321       HGA2
   54     4    55	5 ;       HGA2      CG321       HGA2
    6     5    11	5 ;      CG321      NG301      SG3O2
    6     5     4	5 ;      CG321      NG301      CG321
   11     5     4	5 ;      SG3O2      NG301      CG321
    7     6     5	5 ;      CG324      CG321      NG301
    7     6    56	5 ;      CG324      CG321       HGA2
    7     6    57	5 ;      CG324      CG321       HGA2
    5     6    56	5 ;      NG301      CG321       HGA2
    5     6    57	5 ;      NG301      CG321       HGA2
   56     6    57	5 ;       HGA2      CG321       HGA2
    6     7     8	5 ;      CG321      CG324      NG3P2
    6     7    58	5 ;      CG321      CG324       HGA2
    6     7    59	5 ;      CG321      CG324       HGA2
    8     7    58	5 ;      NG3P2      CG324       HGA2
    8     7    59	5 ;      NG3P2      CG324       HGA2
   58     7    59	5 ;       HGA2      CG324       HGA2
    7     8    10	5 ;      CG324      NG3P2       HGP2
    7     8     9	5 ;      CG324      NG3P2       HGP2
    7     8     3	5 ;      CG324      NG3P2      CG314
   10     8     9	5 ;       HGP2      NG3P2       HGP2
   10     8     3	5 ;       HGP2      NG3P2      CG314
    9     8     3	5 ;       HGP2      NG3P2      CG314
   14    11    13	5 ;     CG2R61      SG3O2      OG2P1
   14    11     5	5 ;     CG2R61      SG3O2      NG301
   14    11    12	5 ;     CG2R61      SG3O2      OG2P1
   13    11     5	5 ;      OG2P1      SG3O2      NG301
   13    11    12	5 ;      OG2P1      SG3O2      OG2P1
    5    11    12	5 ;      NG301      SG3O2      OG2P1
   19    14    15	5 ;     CG2R61     CG2R61     CG2R61
   19    14    11	5 ;     CG2R61     CG2R61      SG3O2
   15    14    11	5 ;     CG2R61     CG2R61      SG3O2
   16    15    14	5 ;     CG2R61     CG2R61     CG2R61
   16    15    60	5 ;     CG2R61     CG2R61      HGR61
   14    15    60	5 ;     CG2R61     CG2R61      HGR61
   17    16    15	5 ;     CG2R61     CG2R61     CG2R61
   17    16    61	5 ;     CG2R61     CG2R61      HGR61
   15    16    61	5 ;     CG2R61     CG2R61      HGR61
   18    17    16	5 ;     CG2R61     CG2R61     CG2R61
   18    17    62	5 ;     CG2R61     CG2R61      HGR61
   16    17    62	5 ;     CG2R61     CG2R61      HGR61
   17    18    19	5 ;     CG2R61     CG2R61     CG2R61
   17    18    63	5 ;     CG2R61     CG2R61      HGR61
   19    18    63	5 ;     CG2R61     CG2R61      HGR61
   18    19    14	5 ;     CG2R61     CG2R61     CG2R61
   18    19    64	5 ;     CG2R61     CG2R61      HGR61
   14    19    64	5 ;     CG2R61     CG2R61      HGR61
    2    20    21	5 ;      CG311      OG311       HGP1
   23    22    25	5 ;      CG2O1      NG2S1       HGP1
   23    22     1	5 ;      CG2O1      NG2S1      CG311
   25    22     1	5 ;       HGP1      NG2S1      CG311
   26    23    24	5 ;     CG2R61      CG2O1      OG2D1
   26    23    22	5 ;     CG2R61      CG2O1      NG2S1
   24    23    22	5 ;      OG2D1      CG2O1      NG2S1
   31    26    27	5 ;     CG2R61     CG2R61     CG2R61
   31    26    23	5 ;     CG2R61     CG2R61      CG2O1
   27    26    23	5 ;     CG2R61     CG2R61      CG2O1
   28    27    26	5 ;     CG2R61     CG2R61     CG2R61
   28    27    65	5 ;     CG2R61     CG2R61      HGR61
   26    27    65	5 ;     CG2R61     CG2R61      HGR61
   29    28    33	5 ;     CG2R61     CG2R61      CG2O1
   29    28    27	5 ;     CG2R61     CG2R61     CG2R61
   33    28    27	5 ;      CG2O1     CG2R61     CG2R61
   30    29    28	5 ;     CG2R61     CG2R61     CG2R61
   30    29    66	5 ;     CG2R61     CG2R61      HGR61
   28    29    66	5 ;     CG2R61     CG2R61      HGR61
   32    30    29	5 ;      CG331     CG2R61     CG2R61
   32    30    31	5 ;      CG331     CG2R61     CG2R61
   29    30    31	5 ;     CG2R61     CG2R61     CG2R61
   30    31    26	5 ;     CG2R61     CG2R61     CG2R61
   30    31    67	5 ;     CG2R61     CG2R61      HGR61
   26    31    67	5 ;     CG2R61     CG2R61      HGR61
   30    32    81	5 ;     CG2R61      CG331       HGA3
   30    32    82	5 ;     CG2R61      CG331       HGA3
   30    32    83	5 ;     CG2R61      CG331       HGA3
   81    32    82	5 ;       HGA3      CG331       HGA3
   81    32    83	5 ;       HGA3      CG331       HGA3
   82    32    83	5 ;       HGA3      CG331       HGA3
   28    33    34	5 ;     CG2R61      CG2O1      OG2D1
   28    33    35	5 ;     CG2R61      CG2O1      NG2S0
   34    33    35	5 ;      OG2D1      CG2O1      NG2S0
   33    35    36	5 ;      CG2O1      NG2S0      CG321
   33    35    39	5 ;      CG2O1      NG2S0      CG321
   36    35    39	5 ;      CG321      NG2S0      CG321
   37    36    35	5 ;      CG321      CG321      NG2S0
   37    36    68	5 ;      CG321      CG321       HGA2
   37    36    69	5 ;      CG321      CG321       HGA2
   35    36    68	5 ;      NG2S0      CG321       HGA2
   35    36    69	5 ;      NG2S0      CG321       HGA2
   68    36    69	5 ;       HGA2      CG321       HGA2
   38    37    36	5 ;      CG331      CG321      CG321
   38    37    70	5 ;      CG331      CG321       HGA2
   38    37    71	5 ;      CG331      CG321       HGA2
   36    37    70	5 ;      CG321      CG321       HGA2
   36    37    71	5 ;      CG321      CG321       HGA2
   70    37    71	5 ;       HGA2      CG321       HGA2
   37    38    87	5 ;      CG321      CG331       HGA3
   37    38    88	5 ;      CG321      CG331       HGA3
   37    38    89	5 ;      CG321      CG331       HGA3
   87    38    88	5 ;       HGA3      CG331       HGA3
   87    38    89	5 ;       HGA3      CG331       HGA3
   88    38    89	5 ;       HGA3      CG331       HGA3
   40    39    35	5 ;      CG321      CG321      NG2S0
   40    39    72	5 ;      CG321      CG321       HGA2
   40    39    73	5 ;      CG321      CG321       HGA2
   35    39    72	5 ;      NG2S0      CG321       HGA2
   35    39    73	5 ;      NG2S0      CG321       HGA2
   72    39    73	5 ;       HGA2      CG321       HGA2
   41    40    39	5 ;      CG331      CG321      CG321
   41    40    74	5 ;      CG331      CG321       HGA2
   41    40    75	5 ;      CG331      CG321       HGA2
   39    40    74	5 ;      CG321      CG321       HGA2
   39    40    75	5 ;      CG321      CG321       HGA2
   74    40    75	5 ;       HGA2      CG321       HGA2
   40    41    84	5 ;      CG321      CG331       HGA3
   40    41    85	5 ;      CG321      CG331       HGA3
   40    41    86	5 ;      CG321      CG331       HGA3
   84    41    85	5 ;       HGA3      CG331       HGA3
   84    41    86	5 ;       HGA3      CG331       HGA3
   85    41    86	5 ;       HGA3      CG331       HGA3
    1    42    43	5 ;      CG311      CG321     CG2R61
    1    42    76	5 ;      CG311      CG321       HGA2
    1    42    77	5 ;      CG311      CG321       HGA2
   43    42    76	5 ;     CG2R61      CG321       HGA2
   43    42    77	5 ;     CG2R61      CG321       HGA2
   76    42    77	5 ;       HGA2      CG321       HGA2
   42    43    44	5 ;      CG321     CG2R61     CG2R61
   42    43    50	5 ;      CG321     CG2R61     CG2R61
   44    43    50	5 ;     CG2R61     CG2R61     CG2R61
   43    44    45	5 ;     CG2R61     CG2R61     CG2R66
   43    44    78	5 ;     CG2R61     CG2R61      HGR62
   45    44    78	5 ;     CG2R66     CG2R61      HGR62
   44    45    46	5 ;     CG2R61     CG2R66       FGR1
   44    45    47	5 ;     CG2R61     CG2R66     CG2R61
   46    45    47	5 ;       FGR1     CG2R66     CG2R61
   45    47    48	5 ;     CG2R66     CG2R61     CG2R66
   45    47    79	5 ;     CG2R66     CG2R61      HGR62
   48    47    79	5 ;     CG2R66     CG2R61      HGR62
   50    48    47	5 ;     CG2R61     CG2R66     CG2R61
   50    48    49	5 ;     CG2R61     CG2R66       FGR1
   47    48    49	5 ;     CG2R61     CG2R66       FGR1
   43    50    48	5 ;     CG2R61     CG2R61     CG2R66
   43    50    80	5 ;     CG2R61     CG2R61      HGR62
   48    50    80	5 ;     CG2R66     CG2R61      HGR62

[ dihedrals ]
;	ai	  aj	ak	  al funct			  c0			c1			  c2			c3			  c4			c5
    2     1    22    23	 9 ;      CG311      CG311      NG2S1      CG2O1
    2     1    22    25	 9 ;      CG311      CG311      NG2S1       HGP1
   42     1    22    23	 9 ;      CG321      CG311      NG2S1      CG2O1
   42     1    22    25	 9 ;      CG321      CG311      NG2S1       HGP1
   51     1    22    23	 9 ;       HGA1      CG311      NG2S1      CG2O1
   51     1    22    25	 9 ;       HGA1      CG311      NG2S1       HGP1
   22     1     2     3	 9 ;      NG2S1      CG311      CG311      CG314
   22     1     2    20	 9 ;      NG2S1      CG311      CG311      OG311
   22     1     2    52	 9 ;      NG2S1      CG311      CG311       HGA1
   42     1     2     3	 9 ;      CG321      CG311      CG311      CG314
   42     1     2    20	 9 ;      CG321      CG311      CG311      OG311
   42     1     2    52	 9 ;      CG321      CG311      CG311       HGA1
   51     1     2     3	 9 ;       HGA1      CG311      CG311      CG314
   51     1     2    20	 9 ;       HGA1      CG311      CG311      OG311
   51     1     2    52	 9 ;       HGA1      CG311      CG311       HGA1
   22     1    42    43	 9 ;      NG2S1      CG311      CG321     CG2R61
   22     1    42    76	 9 ;      NG2S1      CG311      CG321       HGA2
   22     1    42    77	 9 ;      NG2S1      CG311      CG321       HGA2
    2     1    42    43	 9 ;      CG311      CG311      CG321     CG2R61
    2     1    42    76	 9 ;      CG311      CG311      CG321       HGA2
    2     1    42    77	 9 ;      CG311      CG311      CG321       HGA2
   51     1    42    43	 9 ;       HGA1      CG311      CG321     CG2R61
   51     1    42    76	 9 ;       HGA1      CG311      CG321       HGA2
   51     1    42    77	 9 ;       HGA1      CG311      CG321       HGA2
    1     2     3     8	 9 ;      CG311      CG311      CG314      NG3P2
    1     2     3     4	 9 ;      CG311      CG311      CG314      CG321
    1     2     3    53	 9 ;      CG311      CG311      CG314       HGA1
   20     2     3     8	 9 ;      OG311      CG311      CG314      NG3P2
   20     2     3     4	 9 ;      OG311      CG311      CG314      CG321
   20     2     3    53	 9 ;      OG311      CG311      CG314       HGA1
   52     2     3     8	 9 ;       HGA1      CG311      CG314      NG3P2
   52     2     3     4	 9 ;       HGA1      CG311      CG314      CG321
   52     2     3    53	 9 ;       HGA1      CG311      CG314       HGA1
    3     2    20    21	 9 ;      CG314      CG311      OG311       HGP1
    1     2    20    21	 9 ;      CG311      CG311      OG311       HGP1
   52     2    20    21	 9 ;       HGA1      CG311      OG311       HGP1
    4     3     8     7	 9 ;      CG321      CG314      NG3P2      CG324
    4     3     8    10	 9 ;      CG321      CG314      NG3P2       HGP2
    4     3     8     9	 9 ;      CG321      CG314      NG3P2       HGP2
    2     3     8     7	 9 ;      CG311      CG314      NG3P2      CG324
    2     3     8    10	 9 ;      CG311      CG314      NG3P2       HGP2
    2     3     8     9	 9 ;      CG311      CG314      NG3P2       HGP2
   53     3     8     7	 9 ;       HGA1      CG314      NG3P2      CG324
   53     3     8    10	 9 ;       HGA1      CG314      NG3P2       HGP2
   53     3     8     9	 9 ;       HGA1      CG314      NG3P2       HGP2
    8     3     4     5	 9 ;      NG3P2      CG314      CG321      NG301
    8     3     4    54	 9 ;      NG3P2      CG314      CG321       HGA2
    8     3     4    55	 9 ;      NG3P2      CG314      CG321       HGA2
    2     3     4     5	 9 ;      CG311      CG314      CG321      NG301
    2     3     4    54	 9 ;      CG311      CG314      CG321       HGA2
    2     3     4    55	 9 ;      CG311      CG314      CG321       HGA2
   53     3     4     5	 9 ;       HGA1      CG314      CG321      NG301
   53     3     4    54	 9 ;       HGA1      CG314      CG321       HGA2
   53     3     4    55	 9 ;       HGA1      CG314      CG321       HGA2
    3     4     5     6	 9 ;      CG314      CG321      NG301      CG321
    3     4     5    11	 9 ;      CG314      CG321      NG301      SG3O2
   54     4     5     6	 9 ;       HGA2      CG321      NG301      CG321
   54     4     5    11	 9 ;       HGA2      CG321      NG301      SG3O2
   55     4     5     6	 9 ;       HGA2      CG321      NG301      CG321
   55     4     5    11	 9 ;       HGA2      CG321      NG301      SG3O2
   11     5     6     7	 9 ;      SG3O2      NG301      CG321      CG324
   11     5     6    56	 9 ;      SG3O2      NG301      CG321       HGA2
   11     5     6    57	 9 ;      SG3O2      NG301      CG321       HGA2
    4     5     6     7	 9 ;      CG321      NG301      CG321      CG324
    4     5     6    56	 9 ;      CG321      NG301      CG321       HGA2
    4     5     6    57	 9 ;      CG321      NG301      CG321       HGA2
    6     5    11    14	 9 ;      CG321      NG301      SG3O2     CG2R61
    6     5    11    13	 9 ;      CG321      NG301      SG3O2      OG2P1
    6     5    11    12	 9 ;      CG321      NG301      SG3O2      OG2P1
    4     5    11    14	 9 ;      CG321      NG301      SG3O2     CG2R61
    4     5    11    13	 9 ;      CG321      NG301      SG3O2      OG2P1
    4     5    11    12	 9 ;      CG321      NG301      SG3O2      OG2P1
    5     6     7     8	 9 ;      NG301      CG321      CG324      NG3P2
    5     6     7    58	 9 ;      NG301      CG321      CG324       HGA2
    5     6     7    59	 9 ;      NG301      CG321      CG324       HGA2
   56     6     7     8	 9 ;       HGA2      CG321      CG324      NG3P2
   56     6     7    58	 9 ;       HGA2      CG321      CG324       HGA2
   56     6     7    59	 9 ;       HGA2      CG321      CG324       HGA2
   57     6     7     8	 9 ;       HGA2      CG321      CG324      NG3P2
   57     6     7    58	 9 ;       HGA2      CG321      CG324       HGA2
   57     6     7    59	 9 ;       HGA2      CG321      CG324       HGA2
    6     7     8    10	 9 ;      CG321      CG324      NG3P2       HGP2
    6     7     8     9	 9 ;      CG321      CG324      NG3P2       HGP2
    6     7     8     3	 9 ;      CG321      CG324      NG3P2      CG314
   58     7     8    10	 9 ;       HGA2      CG324      NG3P2       HGP2
   58     7     8     9	 9 ;       HGA2      CG324      NG3P2       HGP2
   58     7     8     3	 9 ;       HGA2      CG324      NG3P2      CG314
   59     7     8    10	 9 ;       HGA2      CG324      NG3P2       HGP2
   59     7     8     9	 9 ;       HGA2      CG324      NG3P2       HGP2
   59     7     8     3	 9 ;       HGA2      CG324      NG3P2      CG314
   13    11    14    19	 9 ;      OG2P1      SG3O2     CG2R61     CG2R61
   13    11    14    15	 9 ;      OG2P1      SG3O2     CG2R61     CG2R61
    5    11    14    19	 9 ;      NG301      SG3O2     CG2R61     CG2R61
    5    11    14    15	 9 ;      NG301      SG3O2     CG2R61     CG2R61
   12    11    14    19	 9 ;      OG2P1      SG3O2     CG2R61     CG2R61
   12    11    14    15	 9 ;      OG2P1      SG3O2     CG2R61     CG2R61
   15    14    19    18	 9 ;     CG2R61     CG2R61     CG2R61     CG2R61
   15    14    19    64	 9 ;     CG2R61     CG2R61     CG2R61      HGR61
   11    14    19    18	 9 ;      SG3O2     CG2R61     CG2R61     CG2R61
   11    14    19    64	 9 ;      SG3O2     CG2R61     CG2R61      HGR61
   19    14    15    16	 9 ;     CG2R61     CG2R61     CG2R61     CG2R61
   19    14    15    60	 9 ;     CG2R61     CG2R61     CG2R61      HGR61
   11    14    15    16	 9 ;      SG3O2     CG2R61     CG2R61     CG2R61
   11    14    15    60	 9 ;      SG3O2     CG2R61     CG2R61      HGR61
   14    15    16    17	 9 ;     CG2R61     CG2R61     CG2R61     CG2R61
   14    15    16    61	 9 ;     CG2R61     CG2R61     CG2R61      HGR61
   60    15    16    17	 9 ;      HGR61     CG2R61     CG2R61     CG2R61
   60    15    16    61	 9 ;      HGR61     CG2R61     CG2R61      HGR61
   15    16    17    18	 9 ;     CG2R61     CG2R61     CG2R61     CG2R61
   15    16    17    62	 9 ;     CG2R61     CG2R61     CG2R61      HGR61
   61    16    17    18	 9 ;      HGR61     CG2R61     CG2R61     CG2R61
   61    16    17    62	 9 ;      HGR61     CG2R61     CG2R61      HGR61
   16    17    18    19	 9 ;     CG2R61     CG2R61     CG2R61     CG2R61
   16    17    18    63	 9 ;     CG2R61     CG2R61     CG2R61      HGR61
   62    17    18    19	 9 ;      HGR61     CG2R61     CG2R61     CG2R61
   62    17    18    63	 9 ;      HGR61     CG2R61     CG2R61      HGR61
   17    18    19    14	 9 ;     CG2R61     CG2R61     CG2R61     CG2R61
   17    18    19    64	 9 ;     CG2R61     CG2R61     CG2R61      HGR61
   63    18    19    14	 9 ;      HGR61     CG2R61     CG2R61     CG2R61
   63    18    19    64	 9 ;      HGR61     CG2R61     CG2R61      HGR61
   25    22    23    26	 9 ;       HGP1      NG2S1      CG2O1     CG2R61
   25    22    23    24	 9 ;       HGP1      NG2S1      CG2O1      OG2D1
    1    22    23    26	 9 ;      CG311      NG2S1      CG2O1     CG2R61
    1    22    23    24	 9 ;      CG311      NG2S1      CG2O1      OG2D1
   24    23    26    31	 9 ;      OG2D1      CG2O1     CG2R61     CG2R61
   24    23    26    27	 9 ;      OG2D1      CG2O1     CG2R61     CG2R61
   22    23    26    31	 9 ;      NG2S1      CG2O1     CG2R61     CG2R61
   22    23    26    27	 9 ;      NG2S1      CG2O1     CG2R61     CG2R61
   27    26    31    30	 9 ;     CG2R61     CG2R61     CG2R61     CG2R61
   27    26    31    67	 9 ;     CG2R61     CG2R61     CG2R61      HGR61
   23    26    31    30	 9 ;      CG2O1     CG2R61     CG2R61     CG2R61
   23    26    31    67	 9 ;      CG2O1     CG2R61     CG2R61      HGR61
   31    26    27    28	 9 ;     CG2R61     CG2R61     CG2R61     CG2R61
   31    26    27    65	 9 ;     CG2R61     CG2R61     CG2R61      HGR61
   23    26    27    28	 9 ;      CG2O1     CG2R61     CG2R61     CG2R61
   23    26    27    65	 9 ;      CG2O1     CG2R61     CG2R61      HGR61
   26    27    28    29	 9 ;     CG2R61     CG2R61     CG2R61     CG2R61
   26    27    28    33	 9 ;     CG2R61     CG2R61     CG2R61      CG2O1
   65    27    28    29	 9 ;      HGR61     CG2R61     CG2R61     CG2R61
   65    27    28    33	 9 ;      HGR61     CG2R61     CG2R61      CG2O1
   33    28    29    30	 9 ;      CG2O1     CG2R61     CG2R61     CG2R61
   33    28    29    66	 9 ;      CG2O1     CG2R61     CG2R61      HGR61
   27    28    29    30	 9 ;     CG2R61     CG2R61     CG2R61     CG2R61
   27    28    29    66	 9 ;     CG2R61     CG2R61     CG2R61      HGR61
   29    28    33    34	 9 ;     CG2R61     CG2R61      CG2O1      OG2D1
   29    28    33    35	 9 ;     CG2R61     CG2R61      CG2O1      NG2S0
   27    28    33    34	 9 ;     CG2R61     CG2R61      CG2O1      OG2D1
   27    28    33    35	 9 ;     CG2R61     CG2R61      CG2O1      NG2S0
   28    29    30    32	 9 ;     CG2R61     CG2R61     CG2R61      CG331
   28    29    30    31	 9 ;     CG2R61     CG2R61     CG2R61     CG2R61
   66    29    30    32	 9 ;      HGR61     CG2R61     CG2R61      CG331
   66    29    30    31	 9 ;      HGR61     CG2R61     CG2R61     CG2R61
   29    30    32    81	 9 ;     CG2R61     CG2R61      CG331       HGA3
   29    30    32    82	 9 ;     CG2R61     CG2R61      CG331       HGA3
   29    30    32    83	 9 ;     CG2R61     CG2R61      CG331       HGA3
   31    30    32    81	 9 ;     CG2R61     CG2R61      CG331       HGA3
   31    30    32    82	 9 ;     CG2R61     CG2R61      CG331       HGA3
   31    30    32    83	 9 ;     CG2R61     CG2R61      CG331       HGA3
   32    30    31    26	 9 ;      CG331     CG2R61     CG2R61     CG2R61
   32    30    31    67	 9 ;      CG331     CG2R61     CG2R61      HGR61
   29    30    31    26	 9 ;     CG2R61     CG2R61     CG2R61     CG2R61
   29    30    31    67	 9 ;     CG2R61     CG2R61     CG2R61      HGR61
   28    33    35    36	 9 ;     CG2R61      CG2O1      NG2S0      CG321
   28    33    35    39	 9 ;     CG2R61      CG2O1      NG2S0      CG321
   34    33    35    36	 9 ;      OG2D1      CG2O1      NG2S0      CG321
   34    33    35    39	 9 ;      OG2D1      CG2O1      NG2S0      CG321
   33    35    36    37	 9 ;      CG2O1      NG2S0      CG321      CG321
   33    35    36    68	 9 ;      CG2O1      NG2S0      CG321       HGA2
   33    35    36    69	 9 ;      CG2O1      NG2S0      CG321       HGA2
   39    35    36    37	 9 ;      CG321      NG2S0      CG321      CG321
   39    35    36    68	 9 ;      CG321      NG2S0      CG321       HGA2
   39    35    36    69	 9 ;      CG321      NG2S0      CG321       HGA2
   33    35    39    40	 9 ;      CG2O1      NG2S0      CG321      CG321
   33    35    39    72	 9 ;      CG2O1      NG2S0      CG321       HGA2
   33    35    39    73	 9 ;      CG2O1      NG2S0      CG321       HGA2
   36    35    39    40	 9 ;      CG321      NG2S0      CG321      CG321
   36    35    39    72	 9 ;      CG321      NG2S0      CG321       HGA2
   36    35    39    73	 9 ;      CG321      NG2S0      CG321       HGA2
   35    36    37    38	 9 ;      NG2S0      CG321      CG321      CG331
   35    36    37    70	 9 ;      NG2S0      CG321      CG321       HGA2
   35    36    37    71	 9 ;      NG2S0      CG321      CG321       HGA2
   68    36    37    38	 9 ;       HGA2      CG321      CG321      CG331
   68    36    37    70	 9 ;       HGA2      CG321      CG321       HGA2
   68    36    37    71	 9 ;       HGA2      CG321      CG321       HGA2
   69    36    37    38	 9 ;       HGA2      CG321      CG321      CG331
   69    36    37    70	 9 ;       HGA2      CG321      CG321       HGA2
   69    36    37    71	 9 ;       HGA2      CG321      CG321       HGA2
   36    37    38    87	 9 ;      CG321      CG321      CG331       HGA3
   36    37    38    88	 9 ;      CG321      CG321      CG331       HGA3
   36    37    38    89	 9 ;      CG321      CG321      CG331       HGA3
   70    37    38    87	 9 ;       HGA2      CG321      CG331       HGA3
   70    37    38    88	 9 ;       HGA2      CG321      CG331       HGA3
   70    37    38    89	 9 ;       HGA2      CG321      CG331       HGA3
   71    37    38    87	 9 ;       HGA2      CG321      CG331       HGA3
   71    37    38    88	 9 ;       HGA2      CG321      CG331       HGA3
   71    37    38    89	 9 ;       HGA2      CG321      CG331       HGA3
   35    39    40    41	 9 ;      NG2S0      CG321      CG321      CG331
   35    39    40    74	 9 ;      NG2S0      CG321      CG321       HGA2
   35    39    40    75	 9 ;      NG2S0      CG321      CG321       HGA2
   72    39    40    41	 9 ;       HGA2      CG321      CG321      CG331
   72    39    40    74	 9 ;       HGA2      CG321      CG321       HGA2
   72    39    40    75	 9 ;       HGA2      CG321      CG321       HGA2
   73    39    40    41	 9 ;       HGA2      CG321      CG321      CG331
   73    39    40    74	 9 ;       HGA2      CG321      CG321       HGA2
   73    39    40    75	 9 ;       HGA2      CG321      CG321       HGA2
   39    40    41    84	 9 ;      CG321      CG321      CG331       HGA3
   39    40    41    85	 9 ;      CG321      CG321      CG331       HGA3
   39    40    41    86	 9 ;      CG321      CG321      CG331       HGA3
   74    40    41    84	 9 ;       HGA2      CG321      CG331       HGA3
   74    40    41    85	 9 ;       HGA2      CG321      CG331       HGA3
   74    40    41    86	 9 ;       HGA2      CG321      CG331       HGA3
   75    40    41    84	 9 ;       HGA2      CG321      CG331       HGA3
   75    40    41    85	 9 ;       HGA2      CG321      CG331       HGA3
   75    40    41    86	 9 ;       HGA2      CG321      CG331       HGA3
    1    42    43    44	 9 ;      CG311      CG321     CG2R61     CG2R61
    1    42    43    50	 9 ;      CG311      CG321     CG2R61     CG2R61
   76    42    43    44	 9 ;       HGA2      CG321     CG2R61     CG2R61
   76    42    43    50	 9 ;       HGA2      CG321     CG2R61     CG2R61
   77    42    43    44	 9 ;       HGA2      CG321     CG2R61     CG2R61
   77    42    43    50	 9 ;       HGA2      CG321     CG2R61     CG2R61
   42    43    44    45	 9 ;      CG321     CG2R61     CG2R61     CG2R66
   42    43    44    78	 9 ;      CG321     CG2R61     CG2R61      HGR62
   50    43    44    45	 9 ;     CG2R61     CG2R61     CG2R61     CG2R66
   50    43    44    78	 9 ;     CG2R61     CG2R61     CG2R61      HGR62
   42    43    50    48	 9 ;      CG321     CG2R61     CG2R61     CG2R66
   42    43    50    80	 9 ;      CG321     CG2R61     CG2R61      HGR62
   44    43    50    48	 9 ;     CG2R61     CG2R61     CG2R61     CG2R66
   44    43    50    80	 9 ;     CG2R61     CG2R61     CG2R61      HGR62
   43    44    45    46	 9 ;     CG2R61     CG2R61     CG2R66       FGR1
   43    44    45    47	 9 ;     CG2R61     CG2R61     CG2R66     CG2R61
   78    44    45    46	 9 ;      HGR62     CG2R61     CG2R66       FGR1
   78    44    45    47	 9 ;      HGR62     CG2R61     CG2R66     CG2R61
   44    45    47    48	 9 ;     CG2R61     CG2R66     CG2R61     CG2R66
   44    45    47    79	 9 ;     CG2R61     CG2R66     CG2R61      HGR62
   46    45    47    48	 9 ;       FGR1     CG2R66     CG2R61     CG2R66
   46    45    47    79	 9 ;       FGR1     CG2R66     CG2R61      HGR62
   45    47    48    50	 9 ;     CG2R66     CG2R61     CG2R66     CG2R61
   45    47    48    49	 9 ;     CG2R66     CG2R61     CG2R66       FGR1
   79    47    48    50	 9 ;      HGR62     CG2R61     CG2R66     CG2R61
   79    47    48    49	 9 ;      HGR62     CG2R61     CG2R66       FGR1
   47    48    50    43	 9 ;     CG2R61     CG2R66     CG2R61     CG2R61
   47    48    50    80	 9 ;     CG2R61     CG2R66     CG2R61      HGR62
   49    48    50    43	 9 ;       FGR1     CG2R66     CG2R61     CG2R61
   49    48    50    80	 9 ;       FGR1     CG2R66     CG2R61      HGR62

[ dihedrals ]
;	ai	  aj	ak	  al funct			  c0			c1			  c2			c3
   23    26    22    24	 2
   33    28    35    34	 2

