Green Red Orange Magenta Azure Cyan Skyblue
   52
    1LIG     C1    1  -1.848   0.336  -1.565
    1LIG     C2    2  -1.882   0.465  -1.490
    1LIG      S    3  -1.752   0.526  -1.383
    1LIG     O1    4  -1.739   0.432  -1.273
    1LIG     O2    5  -1.774   0.666  -1.360
    1LIG     C3    6  -1.602   0.512  -1.476
    1LIG     C4    7  -1.593   0.380  -1.548
    1LIG     C5    8  -1.714   0.355  -1.642
    1LIG      N    9  -1.464   0.369  -1.633
    1LIG     H1   10  -1.496   0.384  -1.731
    1LIG     H2   11  -1.399   0.446  -1.615
    1LIG     C6   12  -1.394   0.237  -1.623
    1LIG     C7   13  -1.271   0.233  -1.537
    1LIG     C8   14  -1.249   0.332  -1.439
    1LIG     C9   15  -1.147   0.320  -1.345
    1LIG    CL1   16  -1.130   0.439  -1.222
    1LIG    C10   17  -1.062   0.210  -1.346
    1LIG    C11   18  -1.080   0.112  -1.444
    1LIG    CL2   19  -0.978  -0.026  -1.446
    1LIG    C12   20  -1.183   0.123  -1.539
    1LIG     O3   21  -1.680   0.241  -1.721
    1LIG     H3   22  -1.708   0.160  -1.675
    1LIG    C13   23  -1.844   0.208  -1.477
    1LIG    C14   24  -1.953   0.179  -1.377
    1LIG    C15   25  -2.085   0.157  -1.420
    1LIG    C16   26  -2.178   0.094  -1.336
    1LIG     BR   27  -2.348   0.049  -1.407
    1LIG    C17   28  -2.141   0.056  -1.207
    1LIG    C18   29  -2.014   0.087  -1.159
    1LIG    C19   30  -1.921   0.148  -1.244
    1LIG     O4   31  -2.228  -0.013  -1.128
    1LIG     H4   32  -2.278   0.048  -1.071
    1LIG     HC   33  -1.926   0.320  -1.640
    1LIG    HC2   34  -1.971   0.447  -1.430
    1LIG    HC3   35  -1.906   0.542  -1.564
    1LIG    HC4   36  -1.517   0.522  -1.409
    1LIG    HC5   37  -1.598   0.593  -1.550
    1LIG    HC1   38  -1.591   0.300  -1.473
    1LIG    HC6   39  -1.724   0.442  -1.708
    1LIG    HC7   40  -1.365   0.207  -1.724
    1LIG    HC8   41  -1.465   0.163  -1.585
    1LIG    HC9   42  -1.313   0.419  -1.438
    1LIG   HC10   43  -0.984   0.200  -1.273
    1LIG   HC11   44  -1.195   0.047  -1.614
    1LIG   HC12   45  -1.841   0.124  -1.546
    1LIG   HC13   46  -1.749   0.209  -1.423
    1LIG   HC14   47  -2.115   0.188  -1.519
    1LIG   HC15   48  -1.988   0.065  -1.057
    1LIG   HC16   49  -1.822   0.172  -1.206
    1LIG    LP1   50  -1.114   0.553  -1.105
    1LIG    LP2   51  -0.881  -0.158  -1.448
    1LIG    LP3   52  -2.518   0.005  -1.478
   0.00000   0.00000   0.00000
