; Created by cgenff_charmm2gmx.py

[ moleculetype ]
; Name			   nrexcl
LIG				 3

[ atoms ]
;	 nr		  type	resnr residue  atom   cgnr	   charge		mass  typeB    chargeB		massB
; residue	 1 LIG rtp LIG q	qsum
     1      CG311      1    LIG     C1      1     -0.145     12.011   ;
     2      CG321      1    LIG     C2      2      0.180     12.011   ;
     3      SG3O2      1    LIG      S      3      0.113     32.060   ;
     4      OG2P1      1    LIG     O1      4     -0.300     15.999   ;
     5      OG2P1      1    LIG     O2      5     -0.300     15.999   ;
     6      CG321      1    LIG     C3      6      0.224     12.011   ;
     7      CG314      1    LIG     C4      7     -0.043     12.011   ;
     8      CG311      1    LIG     C5      8      0.100     12.011   ;
     9      NG3P2      1    LIG      N      9     -0.444     14.007   ;
    10       HGP2      1    LIG     H1     10      0.346      1.008   ;
    11       HGP2      1    LIG     H2     11      0.346      1.008   ;
    12      CG324      1    LIG     C6     12      0.178     12.011   ;
    13     CG2R61      1    LIG     C7     13      0.029     12.011   ;
    14     CG2R61      1    LIG     C8     14     -0.098     12.011   ;
    15     CG2R61      1    LIG     C9     15      0.052     12.011   ;
    16      CLGR1      1    LIG    CL1     16     -0.200     35.453   ;
    17     CG2R61      1    LIG    C10     17     -0.028     12.011   ;
    18     CG2R61      1    LIG    C11     18      0.052     12.011   ;
    19      CLGR1      1    LIG    CL2     19     -0.200     35.453   ;
    20     CG2R61      1    LIG    C12     20     -0.098     12.011   ;
    21      OG311      1    LIG     O3     21     -0.595     15.999   ;
    22       HGP1      1    LIG     H3     22      0.422      1.008   ;
    23      CG321      1    LIG    C13     23     -0.091     12.011   ;
    24     CG2R61      1    LIG    C14     24     -0.011     12.011   ;
    25     CG2R61      1    LIG    C15     25     -0.097     12.011   ;
    26     CG2R61      1    LIG    C16     26     -0.052     12.011   ;
    27      BRGR1      1    LIG     BR     27     -0.146     79.904   ;
    28     CG2R61      1    LIG    C17     28      0.180     12.011   ;
    29     CG2R61      1    LIG    C18     29     -0.110     12.011   ;
    30     CG2R61      1    LIG    C19     30     -0.117     12.011   ;
    31      OG311      1    LIG     O4     31     -0.530     15.999   ;
    32       HGP1      1    LIG     H4     32      0.421      1.008   ;
    33       HGA1      1    LIG     HC     33      0.090      1.008   ;
    34       HGA2      1    LIG    HC2     34      0.090      1.008   ;
    35       HGA2      1    LIG    HC3     35      0.090      1.008   ;
    36       HGA2      1    LIG    HC4     36      0.090      1.008   ;
    37       HGA2      1    LIG    HC5     37      0.090      1.008   ;
    38       HGA1      1    LIG    HC1     38      0.109      1.008   ;
    39       HGA1      1    LIG    HC6     39      0.090      1.008   ;
    40       HGA2      1    LIG    HC7     40      0.090      1.008   ;
    41       HGA2      1    LIG    HC8     41      0.090      1.008   ;
    42      HGR62      1    LIG    HC9     42      0.150      1.008   ;
    43      HGR62      1    LIG   HC10     43      0.128      1.008   ;
    44      HGR62      1    LIG   HC11     44      0.150      1.008   ;
    45       HGA2      1    LIG   HC12     45      0.090      1.008   ;
    46       HGA2      1    LIG   HC13     46      0.090      1.008   ;
    47      HGR62      1    LIG   HC14     47      0.143      1.008   ;
    48      HGR61      1    LIG   HC15     48      0.116      1.008   ;
    49      HGR61      1    LIG   HC16     49      0.116      1.008   ;
    50        LPH      1    LIG    LP1     50      0.050      0.000   ;
    51        LPH      1    LIG    LP2     51      0.050      0.000   ;
    52        LPH      1    LIG    LP3     52      0.050      0.000   ;

[ bonds ]
;	ai	  aj funct			  c0			c1			  c2			c3
    1     8	 1 ;       CG311      CG311
    1     2	 1 ;       CG311      CG321
    1    23	 1 ;       CG311      CG321
    1    33	 1 ;       CG311       HGA1
    2     3	 1 ;       CG321      SG3O2
    2    34	 1 ;       CG321       HGA2
    2    35	 1 ;       CG321       HGA2
    3     6	 1 ;       SG3O2      CG321
    3     5	 1 ;       SG3O2      OG2P1
    3     4	 1 ;       SG3O2      OG2P1
    6     7	 1 ;       CG321      CG314
    6    36	 1 ;       CG321       HGA2
    6    37	 1 ;       CG321       HGA2
    7     9	 1 ;       CG314      NG3P2
    7     8	 1 ;       CG314      CG311
    7    38	 1 ;       CG314       HGA1
    8    21	 1 ;       CG311      OG311
    8    39	 1 ;       CG311       HGA1
    9    10	 1 ;       NG3P2       HGP2
    9    11	 1 ;       NG3P2       HGP2
    9    12	 1 ;       NG3P2      CG324
   12    13	 1 ;       CG324     CG2R61
   12    40	 1 ;       CG324       HGA2
   12    41	 1 ;       CG324       HGA2
   13    20	 1 ;      CG2R61     CG2R61
   13    14	 1 ;      CG2R61     CG2R61
   14    15	 1 ;      CG2R61     CG2R61
   14    42	 1 ;      CG2R61      HGR62
   15    17	 1 ;      CG2R61     CG2R61
   15    16	 1 ;      CG2R61      CLGR1
   17    18	 1 ;      CG2R61     CG2R61
   17    43	 1 ;      CG2R61      HGR62
   18    19	 1 ;      CG2R61      CLGR1
   18    20	 1 ;      CG2R61     CG2R61
   20    44	 1 ;      CG2R61      HGR62
   21    22	 1 ;       OG311       HGP1
   23    24	 1 ;       CG321     CG2R61
   23    45	 1 ;       CG321       HGA2
   23    46	 1 ;       CG321       HGA2
   24    25	 1 ;      CG2R61     CG2R61
   24    30	 1 ;      CG2R61     CG2R61
   25    26	 1 ;      CG2R61     CG2R61
   25    47	 1 ;      CG2R61      HGR62
   26    27	 1 ;      CG2R61      BRGR1
   26    28	 1 ;      CG2R61     CG2R61
   28    29	 1 ;      CG2R61     CG2R61
   28    31	 1 ;      CG2R61      OG311
   29    30	 1 ;      CG2R61     CG2R61
   29    48	 1 ;      CG2R61      HGR61
   30    49	 1 ;      CG2R61      HGR61
   31    32	 1 ;       OG311       HGP1

[ pairs ]
;	ai	  aj funct			  c0			c1			  c2			c3
    1     6	 1
    1     5	 1
    1     4	 1
    1     9	 1
    1    38	 1
    1    22	 1
    1    25	 1
    1    30	 1
    2    21	 1
    2     7	 1
    2    39	 1
    2    24	 1
    2    45	 1
    2    46	 1
    2    36	 1
    2    37	 1
    3     8	 1
    3    23	 1
    3    33	 1
    3     9	 1
    3    38	 1
    4    34	 1
    4    35	 1
    4     7	 1
    4    36	 1
    4    37	 1
    5    34	 1
    5    35	 1
    5     7	 1
    5    36	 1
    5    37	 1
    6    34	 1
    6    35	 1
    6    10	 1
    6    11	 1
    6    12	 1
    6    21	 1
    6    39	 1
    7    23	 1
    7    33	 1
    7    22	 1
    7    13	 1
    7    40	 1
    7    41	 1
    8    34	 1
    8    35	 1
    8    24	 1
    8    45	 1
    8    46	 1
    8    36	 1
    8    37	 1
    8    10	 1
    8    11	 1
    8    12	 1
    9    36	 1
    9    37	 1
    9    21	 1
    9    39	 1
    9    20	 1
    9    14	 1
   10    38	 1
   10    13	 1
   10    40	 1
   10    41	 1
   11    38	 1
   11    13	 1
   11    40	 1
   11    41	 1
   12    38	 1
   12    18	 1
   12    44	 1
   12    15	 1
   12    42	 1
   13    17	 1
   13    16	 1
   50    13	 1
   13    19	 1
   51    13	 1
   14    40	 1
   14    41	 1
   14    18	 1
   14    44	 1
   14    43	 1
   15    20	 1
   15    19	 1
   51    15	 1
   16    42	 1
   50    42	 1
   16    18	 1
   50    18	 1
   16    43	 1
   50    43	 1
   17    42	 1
   17    44	 1
   19    43	 1
   51    43	 1
   19    44	 1
   51    44	 1
   20    40	 1
   20    41	 1
   20    42	 1
   20    43	 1
   21    23	 1
   21    33	 1
   21    38	 1
   22    39	 1
   23    39	 1
   23    34	 1
   23    35	 1
   23    26	 1
   23    47	 1
   23    29	 1
   23    49	 1
   24    33	 1
   24    27	 1
   52    24	 1
   24    28	 1
   24    48	 1
   25    45	 1
   25    46	 1
   25    29	 1
   25    49	 1
   25    31	 1
   26    30	 1
   26    48	 1
   26    32	 1
   27    47	 1
   52    47	 1
   27    29	 1
   52    29	 1
   27    31	 1
   52    31	 1
   28    47	 1
   28    49	 1
   29    32	 1
   30    45	 1
   30    46	 1
   30    47	 1
   30    31	 1
   31    48	 1
   33    39	 1
   33    34	 1
   33    35	 1
   33    45	 1
   33    46	 1
   36    38	 1
   37    38	 1
   38    39	 1
   48    49	 1

[ angles ]
;	ai	  aj	ak funct			c0			  c1			c2			  c3
    8     1     2	5 ;      CG311      CG311      CG321
    8     1    23	5 ;      CG311      CG311      CG321
    8     1    33	5 ;      CG311      CG311       HGA1
    2     1    23	5 ;      CG321      CG311      CG321
    2     1    33	5 ;      CG321      CG311       HGA1
   23     1    33	5 ;      CG321      CG311       HGA1
    1     2     3	5 ;      CG311      CG321      SG3O2
    1     2    34	5 ;      CG311      CG321       HGA2
    1     2    35	5 ;      CG311      CG321       HGA2
    3     2    34	5 ;      SG3O2      CG321       HGA2
    3     2    35	5 ;      SG3O2      CG321       HGA2
   34     2    35	5 ;       HGA2      CG321       HGA2
    6     3     5	5 ;      CG321      SG3O2      OG2P1
    6     3     2	5 ;      CG321      SG3O2      CG321
    6     3     4	5 ;      CG321      SG3O2      OG2P1
    5     3     2	5 ;      OG2P1      SG3O2      CG321
    5     3     4	5 ;      OG2P1      SG3O2      OG2P1
    2     3     4	5 ;      CG321      SG3O2      OG2P1
    7     6     3	5 ;      CG314      CG321      SG3O2
    7     6    36	5 ;      CG314      CG321       HGA2
    7     6    37	5 ;      CG314      CG321       HGA2
    3     6    36	5 ;      SG3O2      CG321       HGA2
    3     6    37	5 ;      SG3O2      CG321       HGA2
   36     6    37	5 ;       HGA2      CG321       HGA2
    9     7     8	5 ;      NG3P2      CG314      CG311
    9     7     6	5 ;      NG3P2      CG314      CG321
    9     7    38	5 ;      NG3P2      CG314       HGA1
    8     7     6	5 ;      CG311      CG314      CG321
    8     7    38	5 ;      CG311      CG314       HGA1
    6     7    38	5 ;      CG321      CG314       HGA1
   21     8     7	5 ;      OG311      CG311      CG314
   21     8     1	5 ;      OG311      CG311      CG311
   21     8    39	5 ;      OG311      CG311       HGA1
    7     8     1	5 ;      CG314      CG311      CG311
    7     8    39	5 ;      CG314      CG311       HGA1
    1     8    39	5 ;      CG311      CG311       HGA1
   10     9    11	5 ;       HGP2      NG3P2       HGP2
   10     9    12	5 ;       HGP2      NG3P2      CG324
   10     9     7	5 ;       HGP2      NG3P2      CG314
   11     9    12	5 ;       HGP2      NG3P2      CG324
   11     9     7	5 ;       HGP2      NG3P2      CG314
   12     9     7	5 ;      CG324      NG3P2      CG314
   13    12     9	5 ;     CG2R61      CG324      NG3P2
   13    12    40	5 ;     CG2R61      CG324       HGA2
   13    12    41	5 ;     CG2R61      CG324       HGA2
    9    12    40	5 ;      NG3P2      CG324       HGA2
    9    12    41	5 ;      NG3P2      CG324       HGA2
   40    12    41	5 ;       HGA2      CG324       HGA2
   20    13    12	5 ;     CG2R61     CG2R61      CG324
   20    13    14	5 ;     CG2R61     CG2R61     CG2R61
   12    13    14	5 ;      CG324     CG2R61     CG2R61
   13    14    15	5 ;     CG2R61     CG2R61     CG2R61
   13    14    42	5 ;     CG2R61     CG2R61      HGR62
   15    14    42	5 ;     CG2R61     CG2R61      HGR62
   17    15    14	5 ;     CG2R61     CG2R61     CG2R61
   17    15    16	5 ;     CG2R61     CG2R61      CLGR1
   14    15    16	5 ;     CG2R61     CG2R61      CLGR1
   18    17    15	5 ;     CG2R61     CG2R61     CG2R61
   18    17    43	5 ;     CG2R61     CG2R61      HGR62
   15    17    43	5 ;     CG2R61     CG2R61      HGR62
   19    18    20	5 ;      CLGR1     CG2R61     CG2R61
   19    18    17	5 ;      CLGR1     CG2R61     CG2R61
   20    18    17	5 ;     CG2R61     CG2R61     CG2R61
   18    20    13	5 ;     CG2R61     CG2R61     CG2R61
   18    20    44	5 ;     CG2R61     CG2R61      HGR62
   13    20    44	5 ;     CG2R61     CG2R61      HGR62
    8    21    22	5 ;      CG311      OG311       HGP1
    1    23    24	5 ;      CG311      CG321     CG2R61
    1    23    45	5 ;      CG311      CG321       HGA2
    1    23    46	5 ;      CG311      CG321       HGA2
   24    23    45	5 ;     CG2R61      CG321       HGA2
   24    23    46	5 ;     CG2R61      CG321       HGA2
   45    23    46	5 ;       HGA2      CG321       HGA2
   23    24    25	5 ;      CG321     CG2R61     CG2R61
   23    24    30	5 ;      CG321     CG2R61     CG2R61
   25    24    30	5 ;     CG2R61     CG2R61     CG2R61
   24    25    26	5 ;     CG2R61     CG2R61     CG2R61
   24    25    47	5 ;     CG2R61     CG2R61      HGR62
   26    25    47	5 ;     CG2R61     CG2R61      HGR62
   25    26    27	5 ;     CG2R61     CG2R61      BRGR1
   25    26    28	5 ;     CG2R61     CG2R61     CG2R61
   27    26    28	5 ;      BRGR1     CG2R61     CG2R61
   26    28    29	5 ;     CG2R61     CG2R61     CG2R61
   26    28    31	5 ;     CG2R61     CG2R61      OG311
   29    28    31	5 ;     CG2R61     CG2R61      OG311
   30    29    28	5 ;     CG2R61     CG2R61     CG2R61
   30    29    48	5 ;     CG2R61     CG2R61      HGR61
   28    29    48	5 ;     CG2R61     CG2R61      HGR61
   24    30    29	5 ;     CG2R61     CG2R61     CG2R61
   24    30    49	5 ;     CG2R61     CG2R61      HGR61
   29    30    49	5 ;     CG2R61     CG2R61      HGR61
   28    31    32	5 ;     CG2R61      OG311       HGP1

[ dihedrals ]
;	ai	  aj	ak	  al funct			  c0			c1			  c2			c3			  c4			c5
    2     1     8    21	 9 ;      CG321      CG311      CG311      OG311
    2     1     8     7	 9 ;      CG321      CG311      CG311      CG314
    2     1     8    39	 9 ;      CG321      CG311      CG311       HGA1
   23     1     8    21	 9 ;      CG321      CG311      CG311      OG311
   23     1     8     7	 9 ;      CG321      CG311      CG311      CG314
   23     1     8    39	 9 ;      CG321      CG311      CG311       HGA1
   33     1     8    21	 9 ;       HGA1      CG311      CG311      OG311
   33     1     8     7	 9 ;       HGA1      CG311      CG311      CG314
   33     1     8    39	 9 ;       HGA1      CG311      CG311       HGA1
    8     1     2     3	 9 ;      CG311      CG311      CG321      SG3O2
    8     1     2    34	 9 ;      CG311      CG311      CG321       HGA2
    8     1     2    35	 9 ;      CG311      CG311      CG321       HGA2
   23     1     2     3	 9 ;      CG321      CG311      CG321      SG3O2
   23     1     2    34	 9 ;      CG321      CG311      CG321       HGA2
   23     1     2    35	 9 ;      CG321      CG311      CG321       HGA2
   33     1     2     3	 9 ;       HGA1      CG311      CG321      SG3O2
   33     1     2    34	 9 ;       HGA1      CG311      CG321       HGA2
   33     1     2    35	 9 ;       HGA1      CG311      CG321       HGA2
    8     1    23    24	 9 ;      CG311      CG311      CG321     CG2R61
    8     1    23    45	 9 ;      CG311      CG311      CG321       HGA2
    8     1    23    46	 9 ;      CG311      CG311      CG321       HGA2
    2     1    23    24	 9 ;      CG321      CG311      CG321     CG2R61
    2     1    23    45	 9 ;      CG321      CG311      CG321       HGA2
    2     1    23    46	 9 ;      CG321      CG311      CG321       HGA2
   33     1    23    24	 9 ;       HGA1      CG311      CG321     CG2R61
   33     1    23    45	 9 ;       HGA1      CG311      CG321       HGA2
   33     1    23    46	 9 ;       HGA1      CG311      CG321       HGA2
    1     2     3     6	 9 ;      CG311      CG321      SG3O2      CG321
    1     2     3     5	 9 ;      CG311      CG321      SG3O2      OG2P1
    1     2     3     4	 9 ;      CG311      CG321      SG3O2      OG2P1
   34     2     3     6	 9 ;       HGA2      CG321      SG3O2      CG321
   34     2     3     5	 9 ;       HGA2      CG321      SG3O2      OG2P1
   34     2     3     4	 9 ;       HGA2      CG321      SG3O2      OG2P1
   35     2     3     6	 9 ;       HGA2      CG321      SG3O2      CG321
   35     2     3     5	 9 ;       HGA2      CG321      SG3O2      OG2P1
   35     2     3     4	 9 ;       HGA2      CG321      SG3O2      OG2P1
    5     3     6     7	 9 ;      OG2P1      SG3O2      CG321      CG314
    5     3     6    36	 9 ;      OG2P1      SG3O2      CG321       HGA2
    5     3     6    37	 9 ;      OG2P1      SG3O2      CG321       HGA2
    2     3     6     7	 9 ;      CG321      SG3O2      CG321      CG314
    2     3     6    36	 9 ;      CG321      SG3O2      CG321       HGA2
    2     3     6    37	 9 ;      CG321      SG3O2      CG321       HGA2
    4     3     6     7	 9 ;      OG2P1      SG3O2      CG321      CG314
    4     3     6    36	 9 ;      OG2P1      SG3O2      CG321       HGA2
    4     3     6    37	 9 ;      OG2P1      SG3O2      CG321       HGA2
    3     6     7     9	 9 ;      SG3O2      CG321      CG314      NG3P2
    3     6     7     8	 9 ;      SG3O2      CG321      CG314      CG311
    3     6     7    38	 9 ;      SG3O2      CG321      CG314       HGA1
   36     6     7     9	 9 ;       HGA2      CG321      CG314      NG3P2
   36     6     7     8	 9 ;       HGA2      CG321      CG314      CG311
   36     6     7    38	 9 ;       HGA2      CG321      CG314       HGA1
   37     6     7     9	 9 ;       HGA2      CG321      CG314      NG3P2
   37     6     7     8	 9 ;       HGA2      CG321      CG314      CG311
   37     6     7    38	 9 ;       HGA2      CG321      CG314       HGA1
    8     7     9    10	 9 ;      CG311      CG314      NG3P2       HGP2
    8     7     9    11	 9 ;      CG311      CG314      NG3P2       HGP2
    8     7     9    12	 9 ;      CG311      CG314      NG3P2      CG324
    6     7     9    10	 9 ;      CG321      CG314      NG3P2       HGP2
    6     7     9    11	 9 ;      CG321      CG314      NG3P2       HGP2
    6     7     9    12	 9 ;      CG321      CG314      NG3P2      CG324
   38     7     9    10	 9 ;       HGA1      CG314      NG3P2       HGP2
   38     7     9    11	 9 ;       HGA1      CG314      NG3P2       HGP2
   38     7     9    12	 9 ;       HGA1      CG314      NG3P2      CG324
    9     7     8    21	 9 ;      NG3P2      CG314      CG311      OG311
    9     7     8     1	 9 ;      NG3P2      CG314      CG311      CG311
    9     7     8    39	 9 ;      NG3P2      CG314      CG311       HGA1
    6     7     8    21	 9 ;      CG321      CG314      CG311      OG311
    6     7     8     1	 9 ;      CG321      CG314      CG311      CG311
    6     7     8    39	 9 ;      CG321      CG314      CG311       HGA1
   38     7     8    21	 9 ;       HGA1      CG314      CG311      OG311
   38     7     8     1	 9 ;       HGA1      CG314      CG311      CG311
   38     7     8    39	 9 ;       HGA1      CG314      CG311       HGA1
    7     8    21    22	 9 ;      CG314      CG311      OG311       HGP1
    1     8    21    22	 9 ;      CG311      CG311      OG311       HGP1
   39     8    21    22	 9 ;       HGA1      CG311      OG311       HGP1
   10     9    12    13	 9 ;       HGP2      NG3P2      CG324     CG2R61
   10     9    12    40	 9 ;       HGP2      NG3P2      CG324       HGA2
   10     9    12    41	 9 ;       HGP2      NG3P2      CG324       HGA2
   11     9    12    13	 9 ;       HGP2      NG3P2      CG324     CG2R61
   11     9    12    40	 9 ;       HGP2      NG3P2      CG324       HGA2
   11     9    12    41	 9 ;       HGP2      NG3P2      CG324       HGA2
    7     9    12    13	 9 ;      CG314      NG3P2      CG324     CG2R61
    7     9    12    40	 9 ;      CG314      NG3P2      CG324       HGA2
    7     9    12    41	 9 ;      CG314      NG3P2      CG324       HGA2
    9    12    13    20	 9 ;      NG3P2      CG324     CG2R61     CG2R61
    9    12    13    14	 9 ;      NG3P2      CG324     CG2R61     CG2R61
   40    12    13    20	 9 ;       HGA2      CG324     CG2R61     CG2R61
   40    12    13    14	 9 ;       HGA2      CG324     CG2R61     CG2R61
   41    12    13    20	 9 ;       HGA2      CG324     CG2R61     CG2R61
   41    12    13    14	 9 ;       HGA2      CG324     CG2R61     CG2R61
   12    13    20    18	 9 ;      CG324     CG2R61     CG2R61     CG2R61
   12    13    20    44	 9 ;      CG324     CG2R61     CG2R61      HGR62
   14    13    20    18	 9 ;     CG2R61     CG2R61     CG2R61     CG2R61
   14    13    20    44	 9 ;     CG2R61     CG2R61     CG2R61      HGR62
   20    13    14    15	 9 ;     CG2R61     CG2R61     CG2R61     CG2R61
   20    13    14    42	 9 ;     CG2R61     CG2R61     CG2R61      HGR62
   12    13    14    15	 9 ;      CG324     CG2R61     CG2R61     CG2R61
   12    13    14    42	 9 ;      CG324     CG2R61     CG2R61      HGR62
   13    14    15    17	 9 ;     CG2R61     CG2R61     CG2R61     CG2R61
   13    14    15    16	 9 ;     CG2R61     CG2R61     CG2R61      CLGR1
   42    14    15    17	 9 ;      HGR62     CG2R61     CG2R61     CG2R61
   42    14    15    16	 9 ;      HGR62     CG2R61     CG2R61      CLGR1
   14    15    17    18	 9 ;     CG2R61     CG2R61     CG2R61     CG2R61
   14    15    17    43	 9 ;     CG2R61     CG2R61     CG2R61      HGR62
   16    15    17    18	 9 ;      CLGR1     CG2R61     CG2R61     CG2R61
   16    15    17    43	 9 ;      CLGR1     CG2R61     CG2R61      HGR62
   15    17    18    19	 9 ;     CG2R61     CG2R61     CG2R61      CLGR1
   15    17    18    20	 9 ;     CG2R61     CG2R61     CG2R61     CG2R61
   43    17    18    19	 9 ;      HGR62     CG2R61     CG2R61      CLGR1
   43    17    18    20	 9 ;      HGR62     CG2R61     CG2R61     CG2R61
   19    18    20    13	 9 ;      CLGR1     CG2R61     CG2R61     CG2R61
   19    18    20    44	 9 ;      CLGR1     CG2R61     CG2R61      HGR62
   17    18    20    13	 9 ;     CG2R61     CG2R61     CG2R61     CG2R61
   17    18    20    44	 9 ;     CG2R61     CG2R61     CG2R61      HGR62
    1    23    24    25	 9 ;      CG311      CG321     CG2R61     CG2R61
    1    23    24    30	 9 ;      CG311      CG321     CG2R61     CG2R61
   45    23    24    25	 9 ;       HGA2      CG321     CG2R61     CG2R61
   45    23    24    30	 9 ;       HGA2      CG321     CG2R61     CG2R61
   46    23    24    25	 9 ;       HGA2      CG321     CG2R61     CG2R61
   46    23    24    30	 9 ;       HGA2      CG321     CG2R61     CG2R61
   23    24    25    26	 9 ;      CG321     CG2R61     CG2R61     CG2R61
   23    24    25    47	 9 ;      CG321     CG2R61     CG2R61      HGR62
   30    24    25    26	 9 ;     CG2R61     CG2R61     CG2R61     CG2R61
   30    24    25    47	 9 ;     CG2R61     CG2R61     CG2R61      HGR62
   23    24    30    29	 9 ;      CG321     CG2R61     CG2R61     CG2R61
   23    24    30    49	 9 ;      CG321     CG2R61     CG2R61      HGR61
   25    24    30    29	 9 ;     CG2R61     CG2R61     CG2R61     CG2R61
   25    24    30    49	 9 ;     CG2R61     CG2R61     CG2R61      HGR61
   24    25    26    27	 9 ;     CG2R61     CG2R61     CG2R61      BRGR1
   24    25    26    28	 9 ;     CG2R61     CG2R61     CG2R61     CG2R61
   47    25    26    27	 9 ;      HGR62     CG2R61     CG2R61      BRGR1
   47    25    26    28	 9 ;      HGR62     CG2R61     CG2R61     CG2R61
   25    26    28    29	 9 ;     CG2R61     CG2R61     CG2R61     CG2R61
   25    26    28    31	 9 ;     CG2R61     CG2R61     CG2R61      OG311
   27    26    28    29	 9 ;      BRGR1     CG2R61     CG2R61     CG2R61
   27    26    28    31	 9 ;      BRGR1     CG2R61     CG2R61      OG311
   26    28    29    30	 9 ;     CG2R61     CG2R61     CG2R61     CG2R61
   26    28    29    48	 9 ;     CG2R61     CG2R61     CG2R61      HGR61
   31    28    29    30	 9 ;      OG311     CG2R61     CG2R61     CG2R61
   31    28    29    48	 9 ;      OG311     CG2R61     CG2R61      HGR61
   26    28    31    32	 9 ;     CG2R61     CG2R61      OG311       HGP1
   29    28    31    32	 9 ;     CG2R61     CG2R61      OG311       HGP1
   28    29    30    24	 9 ;     CG2R61     CG2R61     CG2R61     CG2R61
   28    29    30    49	 9 ;     CG2R61     CG2R61     CG2R61      HGR61
   48    29    30    24	 9 ;      HGR61     CG2R61     CG2R61     CG2R61
   48    29    30    49	 9 ;      HGR61     CG2R61     CG2R61      HGR61

[ virtual_sites2 ]
; Site   from				funct a
   50    16    15     2   -0.164
   51    19    18     2   -0.164
   52    27    26     2   -0.189

[ exclusions ]
;	ai	  aj
   16    50
   19    51
   27    52
   50    15
   51    18
   52    26
   50    17
   50    14
   51    20
   51    17
   52    25
   52    28
   50    13
   51    13
   51    15
   50    42
   50    18
   50    43
   51    43
   51    44
   52    24
   52    47
   52    29
   52    31

