; Created by cgenff_charmm2gmx.py

[ moleculetype ]
; Name			   nrexcl
LIG				 3

[ atoms ]
;	 nr		  type	resnr residue  atom   cgnr	   charge		mass  typeB    chargeB		massB
; residue	 1 LIG rtp LIG q	qsum
     1      CG311      1    LIG     C1      1     -0.003     12.011   ;
     2      CG321      1    LIG     C2      2     -0.153     12.011   ;
     3     CG2R61      1    LIG     C3      3      0.057     12.011   ;
     4     CG2R61      1    LIG     C4      4     -0.218     12.011   ;
     5     CG2R66      1    LIG     C5      5      0.261     12.011   ;
     6       FGR1      1    LIG     F1      6     -0.210     18.998   ;
     7     CG2R61      1    LIG     C6      7     -0.240     12.011   ;
     8     CG2R66      1    LIG     C7      8      0.261     12.011   ;
     9       FGR1      1    LIG     F2      9     -0.210     18.998   ;
    10     CG2R61      1    LIG     C8     10     -0.218     12.011   ;
    11      CG311      1    LIG     C9     11      0.094     12.011   ;
    12      CG324      1    LIG    C10     12      0.178     12.011   ;
    13      NG3P2      1    LIG     N1     13     -0.444     14.007   ;
    14       HGP2      1    LIG     H1     14      0.348      1.008   ;
    15       HGP2      1    LIG     H2     15      0.348      1.008   ;
    16      CG324      1    LIG    C11     16      0.171     12.011   ;
    17     CG2R61      1    LIG    C12     17      0.037     12.011   ;
    18     CG2R61      1    LIG    C13     18     -0.127     12.011   ;
    19     CG2R61      1    LIG    C14     19      0.009     12.011   ;
    20     CG2R61      1    LIG    C15     20     -0.124     12.011   ;
    21     CG2R61      1    LIG    C16     21     -0.107     12.011   ;
    22     CG2R61      1    LIG    C17     22     -0.119     12.011   ;
    23      CG321      1    LIG    C18     23     -0.175     12.011   ;
    24      CG331      1    LIG    C19     24     -0.271     12.011   ;
    25      OG311      1    LIG     O1     25     -0.625     15.999   ;
    26       HGP1      1    LIG     H3     26      0.415      1.008   ;
    27      NG2S1      1    LIG     N2     27     -0.385     14.007   ;
    28      CG2O1      1    LIG    C20     28      0.510     12.011   ;
    29      OG2D1      1    LIG     O2     29     -0.509     15.999   ;
    30       HGP1      1    LIG     H4     30      0.269      1.008   ;
    31      CG311      1    LIG    C21     31      0.041     12.011   ;
    32      CG321      1    LIG    C22     32      0.043     12.011   ;
    33      SG3O2      1    LIG      S     33      0.154     32.060   ;
    34      OG2P1      1    LIG     O3     34     -0.367     15.999   ;
    35      OG2P1      1    LIG     O4     35     -0.367     15.999   ;
    36      CG321      1    LIG    C23     36      0.109     12.011   ;
    37      CG321      1    LIG    C24     37     -0.139     12.011   ;
    38      CG321      1    LIG    C25     38     -0.173     12.011   ;
    39      CG321      1    LIG    C26     39     -0.180     12.011   ;
    40      CG331      1    LIG    C27     40     -0.270     12.011   ;
    41      NG2S1      1    LIG     N3     41     -0.407     14.007   ;
    42      CG2O1      1    LIG    C28     42      0.370     12.011   ;
    43      OG2D1      1    LIG     O5     43     -0.527     15.999   ;
    44       HGP1      1    LIG     H5     44      0.279      1.008   ;
    45     CG2DC1      1    LIG    C29     45      0.374     12.011   ;
    46     CG2DC2      1    LIG    C30     46     -0.300     12.011   ;
    47     CG2DC2      1    LIG    C31     47     -0.208     12.011   ;
    48      CG321      1    LIG    C32     48     -0.038     12.011   ;
    49      NG311      1    LIG     N4     49     -0.543     14.007   ;
    50     CG2D1O      1    LIG    C33     50     -0.101     12.011   ;
    51     HGPAM1      1    LIG     HN     51      0.389      1.008   ;
    52       HGA1      1    LIG     HC     52      0.090      1.008   ;
    53       HGA2      1    LIG    HC2     53      0.090      1.008   ;
    54       HGA2      1    LIG    HC3     54      0.090      1.008   ;
    55      HGR62      1    LIG    HC1     55      0.174      1.008   ;
    56      HGR62      1    LIG    HC4     56      0.186      1.008   ;
    57      HGR62      1    LIG    HC5     57      0.174      1.008   ;
    58       HGA1      1    LIG    HC6     58      0.090      1.008   ;
    59       HGA2      1    LIG    HC7     59      0.090      1.008   ;
    60       HGA2      1    LIG    HC8     60      0.090      1.008   ;
    61       HGA2      1    LIG    HC9     61      0.090      1.008   ;
    62       HGA2      1    LIG   HC10     62      0.090      1.008   ;
    63      HGR61      1    LIG   HC11     63      0.116      1.008   ;
    64      HGR61      1    LIG   HC12     64      0.116      1.008   ;
    65      HGR61      1    LIG   HC13     65      0.116      1.008   ;
    66      HGR61      1    LIG   HC14     66      0.116      1.008   ;
    67       HGA2      1    LIG   HC15     67      0.090      1.008   ;
    68       HGA2      1    LIG   HC16     68      0.090      1.008   ;
    69       HGA3      1    LIG   HC17     69      0.090      1.008   ;
    70       HGA3      1    LIG   HC18     70      0.090      1.008   ;
    71       HGA3      1    LIG   HC19     71      0.090      1.008   ;
    72       HGA1      1    LIG   HC20     72      0.090      1.008   ;
    73       HGA2      1    LIG   HC21     73      0.090      1.008   ;
    74       HGA2      1    LIG   HC22     74      0.090      1.008   ;
    75       HGA2      1    LIG   HC23     75      0.090      1.008   ;
    76       HGA2      1    LIG   HC24     76      0.090      1.008   ;
    77       HGA2      1    LIG   HC25     77      0.090      1.008   ;
    78       HGA2      1    LIG   HC26     78      0.090      1.008   ;
    79       HGA2      1    LIG   HC27     79      0.090      1.008   ;
    80       HGA2      1    LIG   HC28     80      0.090      1.008   ;
    81       HGA2      1    LIG   HC29     81      0.090      1.008   ;
    82       HGA2      1    LIG   HC30     82      0.090      1.008   ;
    83       HGA3      1    LIG   HC31     83      0.090      1.008   ;
    84       HGA3      1    LIG   HC32     84      0.090      1.008   ;
    85       HGA3      1    LIG   HC33     85      0.090      1.008   ;
    86       HGA4      1    LIG   HC34     86      0.143      1.008   ;
    87       HGA4      1    LIG   HC35     87      0.150      1.008   ;
    88       HGA2      1    LIG   HC36     88      0.090      1.008   ;
    89       HGA4      1    LIG   HC37     89      0.140      1.008   ;
    90       HGA2      1    LIG    H45     90      0.090      1.008   ;

[ bonds ]
;	ai	  aj funct			  c0			c1			  c2			c3
    1    11	 1 ;       CG311      CG311
    1    27	 1 ;       CG311      NG2S1
    1     2	 1 ;       CG311      CG321
    1    52	 1 ;       CG311       HGA1
    2     3	 1 ;       CG321     CG2R61
    2    53	 1 ;       CG321       HGA2
    2    54	 1 ;       CG321       HGA2
    3     4	 1 ;      CG2R61     CG2R61
    3    10	 1 ;      CG2R61     CG2R61
    4     5	 1 ;      CG2R61     CG2R66
    4    55	 1 ;      CG2R61      HGR62
    5     6	 1 ;      CG2R66       FGR1
    5     7	 1 ;      CG2R66     CG2R61
    7     8	 1 ;      CG2R61     CG2R66
    7    56	 1 ;      CG2R61      HGR62
    8    10	 1 ;      CG2R66     CG2R61
    8     9	 1 ;      CG2R66       FGR1
   10    57	 1 ;      CG2R61      HGR62
   11    25	 1 ;       CG311      OG311
   11    12	 1 ;       CG311      CG324
   11    58	 1 ;       CG311       HGA1
   12    13	 1 ;       CG324      NG3P2
   12    59	 1 ;       CG324       HGA2
   12    60	 1 ;       CG324       HGA2
   13    14	 1 ;       NG3P2       HGP2
   13    15	 1 ;       NG3P2       HGP2
   13    16	 1 ;       NG3P2      CG324
   16    17	 1 ;       CG324     CG2R61
   16    61	 1 ;       CG324       HGA2
   16    62	 1 ;       CG324       HGA2
   17    22	 1 ;      CG2R61     CG2R61
   17    18	 1 ;      CG2R61     CG2R61
   18    19	 1 ;      CG2R61     CG2R61
   18    63	 1 ;      CG2R61      HGR61
   19    20	 1 ;      CG2R61     CG2R61
   19    23	 1 ;      CG2R61      CG321
   20    21	 1 ;      CG2R61     CG2R61
   20    64	 1 ;      CG2R61      HGR61
   21    22	 1 ;      CG2R61     CG2R61
   21    65	 1 ;      CG2R61      HGR61
   22    66	 1 ;      CG2R61      HGR61
   23    24	 1 ;       CG321      CG331
   23    67	 1 ;       CG321       HGA2
   23    68	 1 ;       CG321       HGA2
   24    69	 1 ;       CG331       HGA3
   24    70	 1 ;       CG331       HGA3
   24    71	 1 ;       CG331       HGA3
   25    26	 1 ;       OG311       HGP1
   27    28	 1 ;       NG2S1      CG2O1
   27    30	 1 ;       NG2S1       HGP1
   28    29	 1 ;       CG2O1      OG2D1
   28    31	 1 ;       CG2O1      CG311
   31    32	 1 ;       CG311      CG321
   31    41	 1 ;       CG311      NG2S1
   31    72	 1 ;       CG311       HGA1
   32    33	 1 ;       CG321      SG3O2
   32    73	 1 ;       CG321       HGA2
   32    74	 1 ;       CG321       HGA2
   33    34	 1 ;       SG3O2      OG2P1
   33    35	 1 ;       SG3O2      OG2P1
   33    36	 1 ;       SG3O2      CG321
   36    37	 1 ;       CG321      CG321
   36    75	 1 ;       CG321       HGA2
   36    76	 1 ;       CG321       HGA2
   37    38	 1 ;       CG321      CG321
   37    77	 1 ;       CG321       HGA2
   37    78	 1 ;       CG321       HGA2
   38    39	 1 ;       CG321      CG321
   38    79	 1 ;       CG321       HGA2
   38    80	 1 ;       CG321       HGA2
   39    40	 1 ;       CG321      CG331
   39    81	 1 ;       CG321       HGA2
   39    82	 1 ;       CG321       HGA2
   40    83	 1 ;       CG331       HGA3
   40    84	 1 ;       CG331       HGA3
   40    85	 1 ;       CG331       HGA3
   41    44	 1 ;       NG2S1       HGP1
   41    42	 1 ;       NG2S1      CG2O1
   42    45	 1 ;       CG2O1     CG2DC1
   42    43	 1 ;       CG2O1      OG2D1
   45    50	 1 ;      CG2DC1     CG2D1O
   45    46	 1 ;      CG2DC1     CG2DC2
   46    47	 1 ;      CG2DC2     CG2DC2
   46    86	 1 ;      CG2DC2       HGA4
   47    48	 1 ;      CG2DC2      CG321
   47    87	 1 ;      CG2DC2       HGA4
   48    49	 1 ;       CG321      NG311
   48    88	 1 ;       CG321       HGA2
   48    90	 1 ;       CG321       HGA2
   49    51	 1 ;       NG311     HGPAM1
   49    50	 1 ;       NG311     CG2D1O
   50    89	 1 ;      CG2D1O       HGA4

[ pairs ]
;	ai	  aj funct			  c0			c1			  c2			c3
    1     4	 1
    1    10	 1
    1    26	 1
    1    13	 1
    1    59	 1
    1    60	 1
    1    29	 1
    1    31	 1
    2    25	 1
    2    12	 1
    2    58	 1
    2    28	 1
    2    30	 1
    2     5	 1
    2    55	 1
    2     8	 1
    2    57	 1
    3    11	 1
    3    27	 1
    3    52	 1
    3     6	 1
    3     7	 1
    3     9	 1
    4    53	 1
    4    54	 1
    4     8	 1
    4    57	 1
    4    56	 1
    5    10	 1
    5     9	 1
    6    55	 1
    6     8	 1
    6    56	 1
    7    55	 1
    7    57	 1
    9    56	 1
    9    57	 1
   10    53	 1
   10    54	 1
   10    55	 1
   10    56	 1
   11    28	 1
   11    30	 1
   11    53	 1
   11    54	 1
   11    14	 1
   11    15	 1
   11    16	 1
   12    27	 1
   12    52	 1
   12    26	 1
   12    17	 1
   12    61	 1
   12    62	 1
   13    25	 1
   13    58	 1
   13    22	 1
   13    18	 1
   14    59	 1
   14    60	 1
   14    17	 1
   14    61	 1
   14    62	 1
   15    59	 1
   15    60	 1
   15    17	 1
   15    61	 1
   15    62	 1
   16    59	 1
   16    60	 1
   16    21	 1
   16    66	 1
   16    19	 1
   16    63	 1
   17    20	 1
   17    23	 1
   17    65	 1
   18    61	 1
   18    62	 1
   18    21	 1
   18    66	 1
   18    64	 1
   18    24	 1
   18    67	 1
   18    68	 1
   19    22	 1
   19    65	 1
   19    69	 1
   19    70	 1
   19    71	 1
   20    63	 1
   20    24	 1
   20    67	 1
   20    68	 1
   20    66	 1
   21    23	 1
   22    61	 1
   22    62	 1
   22    63	 1
   22    64	 1
   23    63	 1
   23    64	 1
   25    27	 1
   25    52	 1
   25    59	 1
   25    60	 1
   26    58	 1
   27    58	 1
   27    53	 1
   27    54	 1
   27    32	 1
   27    41	 1
   27    72	 1
   28    52	 1
   28    33	 1
   28    73	 1
   28    74	 1
   28    44	 1
   28    42	 1
   29    30	 1
   29    32	 1
   29    41	 1
   29    72	 1
   30    52	 1
   30    31	 1
   31    34	 1
   31    35	 1
   31    36	 1
   31    45	 1
   31    43	 1
   32    44	 1
   32    42	 1
   32    37	 1
   32    75	 1
   32    76	 1
   33    41	 1
   33    72	 1
   33    38	 1
   33    77	 1
   33    78	 1
   34    73	 1
   34    74	 1
   34    37	 1
   34    75	 1
   34    76	 1
   35    73	 1
   35    74	 1
   35    37	 1
   35    75	 1
   35    76	 1
   36    73	 1
   36    74	 1
   36    39	 1
   36    79	 1
   36    80	 1
   37    40	 1
   37    81	 1
   37    82	 1
   38    75	 1
   38    76	 1
   38    83	 1
   38    84	 1
   38    85	 1
   39    77	 1
   39    78	 1
   40    79	 1
   40    80	 1
   41    73	 1
   41    74	 1
   41    50	 1
   41    46	 1
   42    72	 1
   42    49	 1
   42    89	 1
   42    47	 1
   42    86	 1
   43    44	 1
   43    50	 1
   43    46	 1
   44    72	 1
   44    45	 1
   45    48	 1
   45    87	 1
   45    51	 1
   46    49	 1
   46    89	 1
   46    88	 1
   46    90	 1
   47    50	 1
   47    51	 1
   48    86	 1
   48    89	 1
   49    87	 1
   50    86	 1
   50    88	 1
   50    90	 1
   51    88	 1
   51    90	 1
   51    89	 1
   52    58	 1
   52    53	 1
   52    54	 1
   58    59	 1
   58    60	 1
   64    65	 1
   65    66	 1
   67    69	 1
   67    70	 1
   67    71	 1
   68    69	 1
   68    70	 1
   68    71	 1
   72    73	 1
   72    74	 1
   75    77	 1
   75    78	 1
   76    77	 1
   76    78	 1
   77    79	 1
   77    80	 1
   78    79	 1
   78    80	 1
   79    81	 1
   79    82	 1
   80    81	 1
   80    82	 1
   81    83	 1
   81    84	 1
   81    85	 1
   82    83	 1
   82    84	 1
   82    85	 1
   86    87	 1
   87    88	 1
   87    90	 1

[ angles ]
;	ai	  aj	ak funct			c0			  c1			c2			  c3
   11     1    27	5 ;      CG311      CG311      NG2S1
   11     1     2	5 ;      CG311      CG311      CG321
   11     1    52	5 ;      CG311      CG311       HGA1
   27     1     2	5 ;      NG2S1      CG311      CG321
   27     1    52	5 ;      NG2S1      CG311       HGA1
    2     1    52	5 ;      CG321      CG311       HGA1
    1     2     3	5 ;      CG311      CG321     CG2R61
    1     2    53	5 ;      CG311      CG321       HGA2
    1     2    54	5 ;      CG311      CG321       HGA2
    3     2    53	5 ;     CG2R61      CG321       HGA2
    3     2    54	5 ;     CG2R61      CG321       HGA2
   53     2    54	5 ;       HGA2      CG321       HGA2
    4     3     2	5 ;     CG2R61     CG2R61      CG321
    4     3    10	5 ;     CG2R61     CG2R61     CG2R61
    2     3    10	5 ;      CG321     CG2R61     CG2R61
    5     4     3	5 ;     CG2R66     CG2R61     CG2R61
    5     4    55	5 ;     CG2R66     CG2R61      HGR62
    3     4    55	5 ;     CG2R61     CG2R61      HGR62
    6     5     4	5 ;       FGR1     CG2R66     CG2R61
    6     5     7	5 ;       FGR1     CG2R66     CG2R61
    4     5     7	5 ;     CG2R61     CG2R66     CG2R61
    5     7     8	5 ;     CG2R66     CG2R61     CG2R66
    5     7    56	5 ;     CG2R66     CG2R61      HGR62
    8     7    56	5 ;     CG2R66     CG2R61      HGR62
    7     8    10	5 ;     CG2R61     CG2R66     CG2R61
    7     8     9	5 ;     CG2R61     CG2R66       FGR1
   10     8     9	5 ;     CG2R61     CG2R66       FGR1
    3    10     8	5 ;     CG2R61     CG2R61     CG2R66
    3    10    57	5 ;     CG2R61     CG2R61      HGR62
    8    10    57	5 ;     CG2R66     CG2R61      HGR62
   25    11     1	5 ;      OG311      CG311      CG311
   25    11    12	5 ;      OG311      CG311      CG324
   25    11    58	5 ;      OG311      CG311       HGA1
    1    11    12	5 ;      CG311      CG311      CG324
    1    11    58	5 ;      CG311      CG311       HGA1
   12    11    58	5 ;      CG324      CG311       HGA1
   11    12    13	5 ;      CG311      CG324      NG3P2
   11    12    59	5 ;      CG311      CG324       HGA2
   11    12    60	5 ;      CG311      CG324       HGA2
   13    12    59	5 ;      NG3P2      CG324       HGA2
   13    12    60	5 ;      NG3P2      CG324       HGA2
   59    12    60	5 ;       HGA2      CG324       HGA2
   12    13    14	5 ;      CG324      NG3P2       HGP2
   12    13    15	5 ;      CG324      NG3P2       HGP2
   12    13    16	5 ;      CG324      NG3P2      CG324
   14    13    15	5 ;       HGP2      NG3P2       HGP2
   14    13    16	5 ;       HGP2      NG3P2      CG324
   15    13    16	5 ;       HGP2      NG3P2      CG324
   13    16    17	5 ;      NG3P2      CG324     CG2R61
   13    16    61	5 ;      NG3P2      CG324       HGA2
   13    16    62	5 ;      NG3P2      CG324       HGA2
   17    16    61	5 ;     CG2R61      CG324       HGA2
   17    16    62	5 ;     CG2R61      CG324       HGA2
   61    16    62	5 ;       HGA2      CG324       HGA2
   16    17    22	5 ;      CG324     CG2R61     CG2R61
   16    17    18	5 ;      CG324     CG2R61     CG2R61
   22    17    18	5 ;     CG2R61     CG2R61     CG2R61
   17    18    19	5 ;     CG2R61     CG2R61     CG2R61
   17    18    63	5 ;     CG2R61     CG2R61      HGR61
   19    18    63	5 ;     CG2R61     CG2R61      HGR61
   18    19    20	5 ;     CG2R61     CG2R61     CG2R61
   18    19    23	5 ;     CG2R61     CG2R61      CG321
   20    19    23	5 ;     CG2R61     CG2R61      CG321
   21    20    19	5 ;     CG2R61     CG2R61     CG2R61
   21    20    64	5 ;     CG2R61     CG2R61      HGR61
   19    20    64	5 ;     CG2R61     CG2R61      HGR61
   22    21    20	5 ;     CG2R61     CG2R61     CG2R61
   22    21    65	5 ;     CG2R61     CG2R61      HGR61
   20    21    65	5 ;     CG2R61     CG2R61      HGR61
   17    22    21	5 ;     CG2R61     CG2R61     CG2R61
   17    22    66	5 ;     CG2R61     CG2R61      HGR61
   21    22    66	5 ;     CG2R61     CG2R61      HGR61
   19    23    24	5 ;     CG2R61      CG321      CG331
   19    23    67	5 ;     CG2R61      CG321       HGA2
   19    23    68	5 ;     CG2R61      CG321       HGA2
   24    23    67	5 ;      CG331      CG321       HGA2
   24    23    68	5 ;      CG331      CG321       HGA2
   67    23    68	5 ;       HGA2      CG321       HGA2
   23    24    69	5 ;      CG321      CG331       HGA3
   23    24    70	5 ;      CG321      CG331       HGA3
   23    24    71	5 ;      CG321      CG331       HGA3
   69    24    70	5 ;       HGA3      CG331       HGA3
   69    24    71	5 ;       HGA3      CG331       HGA3
   70    24    71	5 ;       HGA3      CG331       HGA3
   26    25    11	5 ;       HGP1      OG311      CG311
    1    27    28	5 ;      CG311      NG2S1      CG2O1
    1    27    30	5 ;      CG311      NG2S1       HGP1
   28    27    30	5 ;      CG2O1      NG2S1       HGP1
   29    28    27	5 ;      OG2D1      CG2O1      NG2S1
   29    28    31	5 ;      OG2D1      CG2O1      CG311
   27    28    31	5 ;      NG2S1      CG2O1      CG311
   32    31    28	5 ;      CG321      CG311      CG2O1
   32    31    41	5 ;      CG321      CG311      NG2S1
   32    31    72	5 ;      CG321      CG311       HGA1
   28    31    41	5 ;      CG2O1      CG311      NG2S1
   28    31    72	5 ;      CG2O1      CG311       HGA1
   41    31    72	5 ;      NG2S1      CG311       HGA1
   33    32    31	5 ;      SG3O2      CG321      CG311
   33    32    73	5 ;      SG3O2      CG321       HGA2
   33    32    74	5 ;      SG3O2      CG321       HGA2
   31    32    73	5 ;      CG311      CG321       HGA2
   31    32    74	5 ;      CG311      CG321       HGA2
   73    32    74	5 ;       HGA2      CG321       HGA2
   34    33    35	5 ;      OG2P1      SG3O2      OG2P1
   34    33    36	5 ;      OG2P1      SG3O2      CG321
   34    33    32	5 ;      OG2P1      SG3O2      CG321
   35    33    36	5 ;      OG2P1      SG3O2      CG321
   35    33    32	5 ;      OG2P1      SG3O2      CG321
   36    33    32	5 ;      CG321      SG3O2      CG321
   33    36    37	5 ;      SG3O2      CG321      CG321
   33    36    75	5 ;      SG3O2      CG321       HGA2
   33    36    76	5 ;      SG3O2      CG321       HGA2
   37    36    75	5 ;      CG321      CG321       HGA2
   37    36    76	5 ;      CG321      CG321       HGA2
   75    36    76	5 ;       HGA2      CG321       HGA2
   36    37    38	5 ;      CG321      CG321      CG321
   36    37    77	5 ;      CG321      CG321       HGA2
   36    37    78	5 ;      CG321      CG321       HGA2
   38    37    77	5 ;      CG321      CG321       HGA2
   38    37    78	5 ;      CG321      CG321       HGA2
   77    37    78	5 ;       HGA2      CG321       HGA2
   37    38    39	5 ;      CG321      CG321      CG321
   37    38    79	5 ;      CG321      CG321       HGA2
   37    38    80	5 ;      CG321      CG321       HGA2
   39    38    79	5 ;      CG321      CG321       HGA2
   39    38    80	5 ;      CG321      CG321       HGA2
   79    38    80	5 ;       HGA2      CG321       HGA2
   38    39    40	5 ;      CG321      CG321      CG331
   38    39    81	5 ;      CG321      CG321       HGA2
   38    39    82	5 ;      CG321      CG321       HGA2
   40    39    81	5 ;      CG331      CG321       HGA2
   40    39    82	5 ;      CG331      CG321       HGA2
   81    39    82	5 ;       HGA2      CG321       HGA2
   39    40    83	5 ;      CG321      CG331       HGA3
   39    40    84	5 ;      CG321      CG331       HGA3
   39    40    85	5 ;      CG321      CG331       HGA3
   83    40    84	5 ;       HGA3      CG331       HGA3
   83    40    85	5 ;       HGA3      CG331       HGA3
   84    40    85	5 ;       HGA3      CG331       HGA3
   31    41    44	5 ;      CG311      NG2S1       HGP1
   31    41    42	5 ;      CG311      NG2S1      CG2O1
   44    41    42	5 ;       HGP1      NG2S1      CG2O1
   41    42    45	5 ;      NG2S1      CG2O1     CG2DC1
   41    42    43	5 ;      NG2S1      CG2O1      OG2D1
   45    42    43	5 ;     CG2DC1      CG2O1      OG2D1
   50    45    42	5 ;     CG2D1O     CG2DC1      CG2O1
   50    45    46	5 ;     CG2D1O     CG2DC1     CG2DC2
   42    45    46	5 ;      CG2O1     CG2DC1     CG2DC2
   45    46    47	5 ;     CG2DC1     CG2DC2     CG2DC2
   45    46    86	5 ;     CG2DC1     CG2DC2       HGA4
   47    46    86	5 ;     CG2DC2     CG2DC2       HGA4
   48    47    46	5 ;      CG321     CG2DC2     CG2DC2
   48    47    87	5 ;      CG321     CG2DC2       HGA4
   46    47    87	5 ;     CG2DC2     CG2DC2       HGA4
   49    48    47	5 ;      NG311      CG321     CG2DC2
   49    48    88	5 ;      NG311      CG321       HGA2
   49    48    90	5 ;      NG311      CG321       HGA2
   47    48    88	5 ;     CG2DC2      CG321       HGA2
   47    48    90	5 ;     CG2DC2      CG321       HGA2
   88    48    90	5 ;       HGA2      CG321       HGA2
   51    49    50	5 ;     HGPAM1      NG311     CG2D1O
   51    49    48	5 ;     HGPAM1      NG311      CG321
   50    49    48	5 ;     CG2D1O      NG311      CG321
   49    50    45	5 ;      NG311     CG2D1O     CG2DC1
   49    50    89	5 ;      NG311     CG2D1O       HGA4
   45    50    89	5 ;     CG2DC1     CG2D1O       HGA4

[ dihedrals ]
;	ai	  aj	ak	  al funct			  c0			c1			  c2			c3			  c4			c5
   27     1    11    25	 9 ;      NG2S1      CG311      CG311      OG311
   27     1    11    12	 9 ;      NG2S1      CG311      CG311      CG324
   27     1    11    58	 9 ;      NG2S1      CG311      CG311       HGA1
    2     1    11    25	 9 ;      CG321      CG311      CG311      OG311
    2     1    11    12	 9 ;      CG321      CG311      CG311      CG324
    2     1    11    58	 9 ;      CG321      CG311      CG311       HGA1
   52     1    11    25	 9 ;       HGA1      CG311      CG311      OG311
   52     1    11    12	 9 ;       HGA1      CG311      CG311      CG324
   52     1    11    58	 9 ;       HGA1      CG311      CG311       HGA1
   11     1    27    28	 9 ;      CG311      CG311      NG2S1      CG2O1
   11     1    27    30	 9 ;      CG311      CG311      NG2S1       HGP1
    2     1    27    28	 9 ;      CG321      CG311      NG2S1      CG2O1
    2     1    27    30	 9 ;      CG321      CG311      NG2S1       HGP1
   52     1    27    28	 9 ;       HGA1      CG311      NG2S1      CG2O1
   52     1    27    30	 9 ;       HGA1      CG311      NG2S1       HGP1
   11     1     2     3	 9 ;      CG311      CG311      CG321     CG2R61
   11     1     2    53	 9 ;      CG311      CG311      CG321       HGA2
   11     1     2    54	 9 ;      CG311      CG311      CG321       HGA2
   27     1     2     3	 9 ;      NG2S1      CG311      CG321     CG2R61
   27     1     2    53	 9 ;      NG2S1      CG311      CG321       HGA2
   27     1     2    54	 9 ;      NG2S1      CG311      CG321       HGA2
   52     1     2     3	 9 ;       HGA1      CG311      CG321     CG2R61
   52     1     2    53	 9 ;       HGA1      CG311      CG321       HGA2
   52     1     2    54	 9 ;       HGA1      CG311      CG321       HGA2
    1     2     3     4	 9 ;      CG311      CG321     CG2R61     CG2R61
    1     2     3    10	 9 ;      CG311      CG321     CG2R61     CG2R61
   53     2     3     4	 9 ;       HGA2      CG321     CG2R61     CG2R61
   53     2     3    10	 9 ;       HGA2      CG321     CG2R61     CG2R61
   54     2     3     4	 9 ;       HGA2      CG321     CG2R61     CG2R61
   54     2     3    10	 9 ;       HGA2      CG321     CG2R61     CG2R61
    2     3     4     5	 9 ;      CG321     CG2R61     CG2R61     CG2R66
    2     3     4    55	 9 ;      CG321     CG2R61     CG2R61      HGR62
   10     3     4     5	 9 ;     CG2R61     CG2R61     CG2R61     CG2R66
   10     3     4    55	 9 ;     CG2R61     CG2R61     CG2R61      HGR62
    4     3    10     8	 9 ;     CG2R61     CG2R61     CG2R61     CG2R66
    4     3    10    57	 9 ;     CG2R61     CG2R61     CG2R61      HGR62
    2     3    10     8	 9 ;      CG321     CG2R61     CG2R61     CG2R66
    2     3    10    57	 9 ;      CG321     CG2R61     CG2R61      HGR62
    3     4     5     6	 9 ;     CG2R61     CG2R61     CG2R66       FGR1
    3     4     5     7	 9 ;     CG2R61     CG2R61     CG2R66     CG2R61
   55     4     5     6	 9 ;      HGR62     CG2R61     CG2R66       FGR1
   55     4     5     7	 9 ;      HGR62     CG2R61     CG2R66     CG2R61
    6     5     7     8	 9 ;       FGR1     CG2R66     CG2R61     CG2R66
    6     5     7    56	 9 ;       FGR1     CG2R66     CG2R61      HGR62
    4     5     7     8	 9 ;     CG2R61     CG2R66     CG2R61     CG2R66
    4     5     7    56	 9 ;     CG2R61     CG2R66     CG2R61      HGR62
    5     7     8    10	 9 ;     CG2R66     CG2R61     CG2R66     CG2R61
    5     7     8     9	 9 ;     CG2R66     CG2R61     CG2R66       FGR1
   56     7     8    10	 9 ;      HGR62     CG2R61     CG2R66     CG2R61
   56     7     8     9	 9 ;      HGR62     CG2R61     CG2R66       FGR1
    7     8    10     3	 9 ;     CG2R61     CG2R66     CG2R61     CG2R61
    7     8    10    57	 9 ;     CG2R61     CG2R66     CG2R61      HGR62
    9     8    10     3	 9 ;       FGR1     CG2R66     CG2R61     CG2R61
    9     8    10    57	 9 ;       FGR1     CG2R66     CG2R61      HGR62
    1    11    25    26	 9 ;      CG311      CG311      OG311       HGP1
   12    11    25    26	 9 ;      CG324      CG311      OG311       HGP1
   58    11    25    26	 9 ;       HGA1      CG311      OG311       HGP1
   25    11    12    13	 9 ;      OG311      CG311      CG324      NG3P2
   25    11    12    59	 9 ;      OG311      CG311      CG324       HGA2
   25    11    12    60	 9 ;      OG311      CG311      CG324       HGA2
    1    11    12    13	 9 ;      CG311      CG311      CG324      NG3P2
    1    11    12    59	 9 ;      CG311      CG311      CG324       HGA2
    1    11    12    60	 9 ;      CG311      CG311      CG324       HGA2
   58    11    12    13	 9 ;       HGA1      CG311      CG324      NG3P2
   58    11    12    59	 9 ;       HGA1      CG311      CG324       HGA2
   58    11    12    60	 9 ;       HGA1      CG311      CG324       HGA2
   11    12    13    14	 9 ;      CG311      CG324      NG3P2       HGP2
   11    12    13    15	 9 ;      CG311      CG324      NG3P2       HGP2
   11    12    13    16	 9 ;      CG311      CG324      NG3P2      CG324
   59    12    13    14	 9 ;       HGA2      CG324      NG3P2       HGP2
   59    12    13    15	 9 ;       HGA2      CG324      NG3P2       HGP2
   59    12    13    16	 9 ;       HGA2      CG324      NG3P2      CG324
   60    12    13    14	 9 ;       HGA2      CG324      NG3P2       HGP2
   60    12    13    15	 9 ;       HGA2      CG324      NG3P2       HGP2
   60    12    13    16	 9 ;       HGA2      CG324      NG3P2      CG324
   12    13    16    17	 9 ;      CG324      NG3P2      CG324     CG2R61
   12    13    16    61	 9 ;      CG324      NG3P2      CG324       HGA2
   12    13    16    62	 9 ;      CG324      NG3P2      CG324       HGA2
   14    13    16    17	 9 ;       HGP2      NG3P2      CG324     CG2R61
   14    13    16    61	 9 ;       HGP2      NG3P2      CG324       HGA2
   14    13    16    62	 9 ;       HGP2      NG3P2      CG324       HGA2
   15    13    16    17	 9 ;       HGP2      NG3P2      CG324     CG2R61
   15    13    16    61	 9 ;       HGP2      NG3P2      CG324       HGA2
   15    13    16    62	 9 ;       HGP2      NG3P2      CG324       HGA2
   13    16    17    22	 9 ;      NG3P2      CG324     CG2R61     CG2R61
   13    16    17    18	 9 ;      NG3P2      CG324     CG2R61     CG2R61
   61    16    17    22	 9 ;       HGA2      CG324     CG2R61     CG2R61
   61    16    17    18	 9 ;       HGA2      CG324     CG2R61     CG2R61
   62    16    17    22	 9 ;       HGA2      CG324     CG2R61     CG2R61
   62    16    17    18	 9 ;       HGA2      CG324     CG2R61     CG2R61
   16    17    22    21	 9 ;      CG324     CG2R61     CG2R61     CG2R61
   16    17    22    66	 9 ;      CG324     CG2R61     CG2R61      HGR61
   18    17    22    21	 9 ;     CG2R61     CG2R61     CG2R61     CG2R61
   18    17    22    66	 9 ;     CG2R61     CG2R61     CG2R61      HGR61
   16    17    18    19	 9 ;      CG324     CG2R61     CG2R61     CG2R61
   16    17    18    63	 9 ;      CG324     CG2R61     CG2R61      HGR61
   22    17    18    19	 9 ;     CG2R61     CG2R61     CG2R61     CG2R61
   22    17    18    63	 9 ;     CG2R61     CG2R61     CG2R61      HGR61
   17    18    19    20	 9 ;     CG2R61     CG2R61     CG2R61     CG2R61
   17    18    19    23	 9 ;     CG2R61     CG2R61     CG2R61      CG321
   63    18    19    20	 9 ;      HGR61     CG2R61     CG2R61     CG2R61
   63    18    19    23	 9 ;      HGR61     CG2R61     CG2R61      CG321
   18    19    20    21	 9 ;     CG2R61     CG2R61     CG2R61     CG2R61
   18    19    20    64	 9 ;     CG2R61     CG2R61     CG2R61      HGR61
   23    19    20    21	 9 ;      CG321     CG2R61     CG2R61     CG2R61
   23    19    20    64	 9 ;      CG321     CG2R61     CG2R61      HGR61
   18    19    23    24	 9 ;     CG2R61     CG2R61      CG321      CG331
   18    19    23    67	 9 ;     CG2R61     CG2R61      CG321       HGA2
   18    19    23    68	 9 ;     CG2R61     CG2R61      CG321       HGA2
   20    19    23    24	 9 ;     CG2R61     CG2R61      CG321      CG331
   20    19    23    67	 9 ;     CG2R61     CG2R61      CG321       HGA2
   20    19    23    68	 9 ;     CG2R61     CG2R61      CG321       HGA2
   19    20    21    22	 9 ;     CG2R61     CG2R61     CG2R61     CG2R61
   19    20    21    65	 9 ;     CG2R61     CG2R61     CG2R61      HGR61
   64    20    21    22	 9 ;      HGR61     CG2R61     CG2R61     CG2R61
   64    20    21    65	 9 ;      HGR61     CG2R61     CG2R61      HGR61
   20    21    22    17	 9 ;     CG2R61     CG2R61     CG2R61     CG2R61
   20    21    22    66	 9 ;     CG2R61     CG2R61     CG2R61      HGR61
   65    21    22    17	 9 ;      HGR61     CG2R61     CG2R61     CG2R61
   65    21    22    66	 9 ;      HGR61     CG2R61     CG2R61      HGR61
   19    23    24    69	 9 ;     CG2R61      CG321      CG331       HGA3
   19    23    24    70	 9 ;     CG2R61      CG321      CG331       HGA3
   19    23    24    71	 9 ;     CG2R61      CG321      CG331       HGA3
   67    23    24    69	 9 ;       HGA2      CG321      CG331       HGA3
   67    23    24    70	 9 ;       HGA2      CG321      CG331       HGA3
   67    23    24    71	 9 ;       HGA2      CG321      CG331       HGA3
   68    23    24    69	 9 ;       HGA2      CG321      CG331       HGA3
   68    23    24    70	 9 ;       HGA2      CG321      CG331       HGA3
   68    23    24    71	 9 ;       HGA2      CG321      CG331       HGA3
    1    27    28    29	 9 ;      CG311      NG2S1      CG2O1      OG2D1
    1    27    28    31	 9 ;      CG311      NG2S1      CG2O1      CG311
   30    27    28    29	 9 ;       HGP1      NG2S1      CG2O1      OG2D1
   30    27    28    31	 9 ;       HGP1      NG2S1      CG2O1      CG311
   29    28    31    32	 9 ;      OG2D1      CG2O1      CG311      CG321
   29    28    31    41	 9 ;      OG2D1      CG2O1      CG311      NG2S1
   29    28    31    72	 9 ;      OG2D1      CG2O1      CG311       HGA1
   27    28    31    32	 9 ;      NG2S1      CG2O1      CG311      CG321
   27    28    31    41	 9 ;      NG2S1      CG2O1      CG311      NG2S1
   27    28    31    72	 9 ;      NG2S1      CG2O1      CG311       HGA1
   28    31    32    33	 9 ;      CG2O1      CG311      CG321      SG3O2
   28    31    32    73	 9 ;      CG2O1      CG311      CG321       HGA2
   28    31    32    74	 9 ;      CG2O1      CG311      CG321       HGA2
   41    31    32    33	 9 ;      NG2S1      CG311      CG321      SG3O2
   41    31    32    73	 9 ;      NG2S1      CG311      CG321       HGA2
   41    31    32    74	 9 ;      NG2S1      CG311      CG321       HGA2
   72    31    32    33	 9 ;       HGA1      CG311      CG321      SG3O2
   72    31    32    73	 9 ;       HGA1      CG311      CG321       HGA2
   72    31    32    74	 9 ;       HGA1      CG311      CG321       HGA2
   32    31    41    44	 9 ;      CG321      CG311      NG2S1       HGP1
   32    31    41    42	 9 ;      CG321      CG311      NG2S1      CG2O1
   28    31    41    44	 9 ;      CG2O1      CG311      NG2S1       HGP1
   28    31    41    42	 9 ;      CG2O1      CG311      NG2S1      CG2O1
   72    31    41    44	 9 ;       HGA1      CG311      NG2S1       HGP1
   72    31    41    42	 9 ;       HGA1      CG311      NG2S1      CG2O1
   31    32    33    34	 9 ;      CG311      CG321      SG3O2      OG2P1
   31    32    33    35	 9 ;      CG311      CG321      SG3O2      OG2P1
   31    32    33    36	 9 ;      CG311      CG321      SG3O2      CG321
   73    32    33    34	 9 ;       HGA2      CG321      SG3O2      OG2P1
   73    32    33    35	 9 ;       HGA2      CG321      SG3O2      OG2P1
   73    32    33    36	 9 ;       HGA2      CG321      SG3O2      CG321
   74    32    33    34	 9 ;       HGA2      CG321      SG3O2      OG2P1
   74    32    33    35	 9 ;       HGA2      CG321      SG3O2      OG2P1
   74    32    33    36	 9 ;       HGA2      CG321      SG3O2      CG321
   34    33    36    37	 9 ;      OG2P1      SG3O2      CG321      CG321
   34    33    36    75	 9 ;      OG2P1      SG3O2      CG321       HGA2
   34    33    36    76	 9 ;      OG2P1      SG3O2      CG321       HGA2
   35    33    36    37	 9 ;      OG2P1      SG3O2      CG321      CG321
   35    33    36    75	 9 ;      OG2P1      SG3O2      CG321       HGA2
   35    33    36    76	 9 ;      OG2P1      SG3O2      CG321       HGA2
   32    33    36    37	 9 ;      CG321      SG3O2      CG321      CG321
   32    33    36    75	 9 ;      CG321      SG3O2      CG321       HGA2
   32    33    36    76	 9 ;      CG321      SG3O2      CG321       HGA2
   33    36    37    38	 9 ;      SG3O2      CG321      CG321      CG321
   33    36    37    77	 9 ;      SG3O2      CG321      CG321       HGA2
   33    36    37    78	 9 ;      SG3O2      CG321      CG321       HGA2
   75    36    37    38	 9 ;       HGA2      CG321      CG321      CG321
   75    36    37    77	 9 ;       HGA2      CG321      CG321       HGA2
   75    36    37    78	 9 ;       HGA2      CG321      CG321       HGA2
   76    36    37    38	 9 ;       HGA2      CG321      CG321      CG321
   76    36    37    77	 9 ;       HGA2      CG321      CG321       HGA2
   76    36    37    78	 9 ;       HGA2      CG321      CG321       HGA2
   36    37    38    39	 9 ;      CG321      CG321      CG321      CG321
   36    37    38    79	 9 ;      CG321      CG321      CG321       HGA2
   36    37    38    80	 9 ;      CG321      CG321      CG321       HGA2
   77    37    38    39	 9 ;       HGA2      CG321      CG321      CG321
   77    37    38    79	 9 ;       HGA2      CG321      CG321       HGA2
   77    37    38    80	 9 ;       HGA2      CG321      CG321       HGA2
   78    37    38    39	 9 ;       HGA2      CG321      CG321      CG321
   78    37    38    79	 9 ;       HGA2      CG321      CG321       HGA2
   78    37    38    80	 9 ;       HGA2      CG321      CG321       HGA2
   37    38    39    40	 9 ;      CG321      CG321      CG321      CG331
   37    38    39    81	 9 ;      CG321      CG321      CG321       HGA2
   37    38    39    82	 9 ;      CG321      CG321      CG321       HGA2
   79    38    39    40	 9 ;       HGA2      CG321      CG321      CG331
   79    38    39    81	 9 ;       HGA2      CG321      CG321       HGA2
   79    38    39    82	 9 ;       HGA2      CG321      CG321       HGA2
   80    38    39    40	 9 ;       HGA2      CG321      CG321      CG331
   80    38    39    81	 9 ;       HGA2      CG321      CG321       HGA2
   80    38    39    82	 9 ;       HGA2      CG321      CG321       HGA2
   38    39    40    83	 9 ;      CG321      CG321      CG331       HGA3
   38    39    40    84	 9 ;      CG321      CG321      CG331       HGA3
   38    39    40    85	 9 ;      CG321      CG321      CG331       HGA3
   81    39    40    83	 9 ;       HGA2      CG321      CG331       HGA3
   81    39    40    84	 9 ;       HGA2      CG321      CG331       HGA3
   81    39    40    85	 9 ;       HGA2      CG321      CG331       HGA3
   82    39    40    83	 9 ;       HGA2      CG321      CG331       HGA3
   82    39    40    84	 9 ;       HGA2      CG321      CG331       HGA3
   82    39    40    85	 9 ;       HGA2      CG321      CG331       HGA3
   31    41    42    45	 9 ;      CG311      NG2S1      CG2O1     CG2DC1
   31    41    42    43	 9 ;      CG311      NG2S1      CG2O1      OG2D1
   44    41    42    45	 9 ;       HGP1      NG2S1      CG2O1     CG2DC1
   44    41    42    43	 9 ;       HGP1      NG2S1      CG2O1      OG2D1
   41    42    45    50	 9 ;      NG2S1      CG2O1     CG2DC1     CG2D1O
   41    42    45    46	 9 ;      NG2S1      CG2O1     CG2DC1     CG2DC2
   43    42    45    50	 9 ;      OG2D1      CG2O1     CG2DC1     CG2D1O
   43    42    45    46	 9 ;      OG2D1      CG2O1     CG2DC1     CG2DC2
   42    45    50    49	 9 ;      CG2O1     CG2DC1     CG2D1O      NG311
   42    45    50    89	 9 ;      CG2O1     CG2DC1     CG2D1O       HGA4
   46    45    50    49	 9 ;     CG2DC2     CG2DC1     CG2D1O      NG311
   46    45    50    89	 9 ;     CG2DC2     CG2DC1     CG2D1O       HGA4
   50    45    46    47	 9 ;     CG2D1O     CG2DC1     CG2DC2     CG2DC2
   50    45    46    86	 9 ;     CG2D1O     CG2DC1     CG2DC2       HGA4
   42    45    46    47	 9 ;      CG2O1     CG2DC1     CG2DC2     CG2DC2
   42    45    46    86	 9 ;      CG2O1     CG2DC1     CG2DC2       HGA4
   45    46    47    48	 9 ;     CG2DC1     CG2DC2     CG2DC2      CG321
   45    46    47    87	 9 ;     CG2DC1     CG2DC2     CG2DC2       HGA4
   86    46    47    48	 9 ;       HGA4     CG2DC2     CG2DC2      CG321
   86    46    47    87	 9 ;       HGA4     CG2DC2     CG2DC2       HGA4
   46    47    48    49	 9 ;     CG2DC2     CG2DC2      CG321      NG311
   46    47    48    88	 9 ;     CG2DC2     CG2DC2      CG321       HGA2
   46    47    48    90	 9 ;     CG2DC2     CG2DC2      CG321       HGA2
   87    47    48    49	 9 ;       HGA4     CG2DC2      CG321      NG311
   87    47    48    88	 9 ;       HGA4     CG2DC2      CG321       HGA2
   87    47    48    90	 9 ;       HGA4     CG2DC2      CG321       HGA2
   47    48    49    51	 9 ;     CG2DC2      CG321      NG311     HGPAM1
   47    48    49    50	 9 ;     CG2DC2      CG321      NG311     CG2D1O
   88    48    49    51	 9 ;       HGA2      CG321      NG311     HGPAM1
   88    48    49    50	 9 ;       HGA2      CG321      NG311     CG2D1O
   90    48    49    51	 9 ;       HGA2      CG321      NG311     HGPAM1
   90    48    49    50	 9 ;       HGA2      CG321      NG311     CG2D1O
   51    49    50    45	 9 ;     HGPAM1      NG311     CG2D1O     CG2DC1
   51    49    50    89	 9 ;     HGPAM1      NG311     CG2D1O       HGA4
   48    49    50    45	 9 ;      CG321      NG311     CG2D1O     CG2DC1
   48    49    50    89	 9 ;      CG321      NG311     CG2D1O       HGA4

[ dihedrals ]
;	ai	  aj	ak	  al funct			  c0			c1			  c2			c3
   28    31    27    29	 2
   42    45    41    43	 2
   50    45    49    89	 2

