GROningen MAchine for Chemical Simulation
   90
    1LIG     C1    1  -1.315   0.495  -1.420
    1LIG     C2    2  -1.337   0.580  -1.292
    1LIG     C3    3  -1.334   0.527  -1.151
    1LIG     C4    4  -1.238   0.558  -1.054
    1LIG     C5    5  -1.252   0.511  -0.922
    1LIG     F1    6  -1.158   0.542  -0.832
    1LIG     C6    7  -1.360   0.434  -0.883
    1LIG     C7    8  -1.457   0.405  -0.977
    1LIG     F2    9  -1.565   0.334  -0.942
    1LIG     C8   10  -1.446   0.451  -1.108
    1LIG     C9   11  -1.363   0.346  -1.417
    1LIG    C10   12  -1.498   0.320  -1.489
    1LIG     N1   13  -1.619   0.359  -1.409
    1LIG     H1   14  -1.622   0.302  -1.324
    1LIG     H2   15  -1.605   0.455  -1.369
    1LIG    C11   16  -1.751   0.347  -1.475
    1LIG    C12   17  -1.808   0.482  -1.504
    1LIG    C13   18  -1.946   0.499  -1.518
    1LIG    C14   19  -2.002   0.626  -1.533
    1LIG    C15   20  -1.917   0.738  -1.539
    1LIG    C16   21  -1.779   0.722  -1.526
    1LIG    C17   22  -1.724   0.595  -1.507
    1LIG    C18   23  -2.151   0.642  -1.542
    1LIG    C19   24  -2.211   0.699  -1.414
    1LIG     O1   25  -1.270   0.252  -1.471
    1LIG     H3   26  -1.190   0.295  -1.505
    1LIG     N2   27  -1.363   0.564  -1.541
    1LIG    C20   28  -1.281   0.602  -1.646
    1LIG     O2   29  -1.157   0.599  -1.630
    1LIG     H4   30  -1.463   0.556  -1.560
    1LIG    C21   31  -1.347   0.623  -1.787
    1LIG    C22   32  -1.253   0.560  -1.891
    1LIG      S   33  -1.286   0.393  -1.941
    1LIG     O3   34  -1.158   0.332  -1.973
    1LIG     O4   35  -1.371   0.337  -1.838
    1LIG    C23   36  -1.383   0.405  -2.091
    1LIG    C24   37  -1.401   0.546  -2.148
    1LIG    C25   38  -1.539   0.595  -2.193
    1LIG    C26   39  -1.624   0.502  -2.280
    1LIG    C27   40  -1.759   0.464  -2.221
    1LIG     N3   41  -1.488   0.582  -1.789
    1LIG    C28   42  -1.591   0.657  -1.842
    1LIG     O5   43  -1.571   0.770  -1.884
    1LIG     H5   44  -1.505   0.486  -1.763
    1LIG    C29   45  -1.721   0.588  -1.869
    1LIG    C30   46  -1.842   0.654  -1.894
    1LIG    C31   47  -1.961   0.582  -1.898
    1LIG    C32   48  -1.956   0.445  -1.878
    1LIG     N4   49  -1.841   0.378  -1.858
    1LIG    C33   50  -1.727   0.450  -1.855
    1LIG     HN   51  -1.840   0.276  -1.847
    1LIG     HC   52  -1.207   0.489  -1.432
    1LIG    HC2   53  -1.261   0.658  -1.296
    1LIG    HC3   54  -1.433   0.631  -1.304
    1LIG    HC1   55  -1.152   0.617  -1.081
    1LIG    HC4   56  -1.369   0.398  -0.781
    1LIG    HC5   57  -1.524   0.429  -1.179
    1LIG    HC6   58  -1.378   0.320  -1.312
    1LIG    HC7   59  -1.505   0.214  -1.512
    1LIG    HC8   60  -1.499   0.376  -1.583
    1LIG    HC9   61  -1.819   0.292  -1.410
    1LIG   HC10   62  -1.739   0.292  -1.569
    1LIG   HC11   63  -2.010   0.412  -1.518
    1LIG   HC12   64  -1.959   0.836  -1.553
    1LIG   HC13   65  -1.714   0.808  -1.531
    1LIG   HC14   66  -1.617   0.584  -1.496
    1LIG   HC15   67  -2.175   0.709  -1.624
    1LIG   HC16   68  -2.196   0.545  -1.561
    1LIG   HC17   69  -2.319   0.709  -1.426
    1LIG   HC18   70  -2.189   0.632  -1.331
    1LIG   HC19   71  -2.168   0.797  -1.395
    1LIG   HC20   72  -1.346   0.731  -1.806
    1LIG   HC21   73  -1.257   0.622  -1.980
    1LIG   HC22   74  -1.152   0.563  -1.851
    1LIG   HC23   75  -1.335   0.344  -2.167
    1LIG   HC24   76  -1.482   0.364  -2.071
    1LIG   HC25   77  -1.366   0.615  -2.071
    1LIG   HC26   78  -1.333   0.555  -2.233
    1LIG   HC27   79  -1.523   0.687  -2.250
    1LIG   HC28   80  -1.596   0.621  -2.104
    1LIG   HC29   81  -1.642   0.552  -2.375
    1LIG   HC30   82  -1.567   0.411  -2.299
    1LIG   HC31   83  -1.811   0.398  -2.290
    1LIG   HC32   84  -1.818   0.553  -2.205
    1LIG   HC33   85  -1.744   0.412  -2.126
    1LIG   HC34   86  -1.843   0.761  -1.910
    1LIG   HC35   87  -2.056   0.631  -1.917
    1LIG   HC36   88  -2.049   0.390  -1.877
    1LIG   HC37   89  -1.634   0.397  -1.841
    1LIG    H45   90  -1.947   0.429  -1.985
   0.00000   0.00000   0.00000
