; Created by cgenff_charmm2gmx.py

[ moleculetype ]
; Name			   nrexcl
LIG				 3

[ atoms ]
;	 nr		  type	resnr residue  atom   cgnr	   charge		mass  typeB    chargeB		massB
; residue	 1 LIG rtp LIG q	qsum
     1      CG311      1    LIG     C1      1      0.093     12.011   ;
     2      CG324      1    LIG     C2      2      0.181     12.011   ;
     3      NG3P2      1    LIG     N1      3     -0.407     14.007   ;
     4       HGP2      1    LIG     H1      4      0.335      1.008   ;
     5       HGP2      1    LIG     H2      5      0.335      1.008   ;
     6     CG3C31      1    LIG     C3      6      0.343     12.011   ;
     7     CG3C31      1    LIG     C4      7     -0.169     12.011   ;
     8     CG3C31      1    LIG     C5      8     -0.169     12.011   ;
     9      CG311      1    LIG     C6      9      0.370     12.011   ;
    10      NG311      1    LIG     N2     10     -0.694     14.007   ;
    11     CG2D1O      1    LIG     C7     11     -0.054     12.011   ;
    12     HGPAM1      1    LIG     HN     12      0.419      1.008   ;
    13     CG2DC1      1    LIG     C8     13     -0.251     12.011   ;
    14     CG2DC2      1    LIG     C9     14      0.077     12.011   ;
    15     CG2DC2      1    LIG    C10     15     -0.356     12.011   ;
    16      CG301      1    LIG    C11     16     -0.105     12.011   ;
    17      CG331      1    LIG    C12     17     -0.256     12.011   ;
    18      CG331      1    LIG    C13     18     -0.256     12.011   ;
    19      CG331      1    LIG    C14     19     -0.256     12.011   ;
    20      OG311      1    LIG     O1     20     -0.625     15.999   ;
    21       HGP1      1    LIG     H3     21      0.415      1.008   ;
    22      CG311      1    LIG    C15     22     -0.007     12.011   ;
    23      NG2S1      1    LIG     N3     23     -0.339     14.007   ;
    24      CG2O1      1    LIG    C16     24      0.488     12.011   ;
    25      OG2D1      1    LIG     O2     25     -0.509     15.999   ;
    26      CG331      1    LIG    C17     26     -0.270     12.011   ;
    27       HGP1      1    LIG     H4     27      0.261      1.008   ;
    28      CG321      1    LIG    C18     28     -0.153     12.011   ;
    29     CG2R61      1    LIG    C19     29      0.057     12.011   ;
    30     CG2R61      1    LIG    C20     30     -0.218     12.011   ;
    31     CG2R66      1    LIG    C21     31      0.261     12.011   ;
    32       FGR1      1    LIG     F1     32     -0.210     18.998   ;
    33     CG2R61      1    LIG    C22     33     -0.240     12.011   ;
    34     CG2R66      1    LIG    C23     34      0.261     12.011   ;
    35     CG2R61      1    LIG    C24     35     -0.218     12.011   ;
    36       FGR1      1    LIG     F2     36     -0.210     18.998   ;
    37       HGA1      1    LIG     HC     37      0.090      1.008   ;
    38       HGA2      1    LIG    HC2     38      0.090      1.008   ;
    39       HGA2      1    LIG    HC3     39      0.090      1.008   ;
    40       HGA2      1    LIG    HC4     40      0.090      1.008   ;
    41       HGA2      1    LIG    HC5     41      0.090      1.008   ;
    42       HGA2      1    LIG    HC6     42      0.090      1.008   ;
    43       HGA2      1    LIG    HC7     43      0.090      1.008   ;
    44       HGA4      1    LIG    HC1     44      0.162      1.008   ;
    45       HGA4      1    LIG    HC8     45      0.150      1.008   ;
    46       HGA4      1    LIG    HC9     46      0.160      1.008   ;
    47       HGA3      1    LIG   HC10     47      0.090      1.008   ;
    48       HGA3      1    LIG   HC11     48      0.090      1.008   ;
    49       HGA3      1    LIG   HC12     49      0.090      1.008   ;
    50       HGA3      1    LIG   HC13     50      0.090      1.008   ;
    51       HGA3      1    LIG   HC14     51      0.090      1.008   ;
    52       HGA3      1    LIG   HC15     52      0.090      1.008   ;
    53       HGA3      1    LIG   HC16     53      0.090      1.008   ;
    54       HGA3      1    LIG   HC17     54      0.090      1.008   ;
    55       HGA3      1    LIG   HC18     55      0.090      1.008   ;
    56       HGA1      1    LIG   HC19     56      0.090      1.008   ;
    57       HGA3      1    LIG   HC20     57      0.090      1.008   ;
    58       HGA3      1    LIG   HC21     58      0.090      1.008   ;
    59       HGA3      1    LIG   HC22     59      0.090      1.008   ;
    60       HGA2      1    LIG   HC23     60      0.090      1.008   ;
    61       HGA2      1    LIG   HC24     61      0.090      1.008   ;
    62      HGR62      1    LIG   HC25     62      0.174      1.008   ;
    63      HGR62      1    LIG   HC26     63      0.186      1.008   ;
    64      HGR62      1    LIG   HC27     64      0.174      1.008   ;
    65       HGA1      1    LIG    H34     65      0.090      1.008   ;

[ bonds ]
;	ai	  aj funct			  c0			c1			  c2			c3
    1    20	 1 ;       CG311      OG311
    1    22	 1 ;       CG311      CG311
    1     2	 1 ;       CG311      CG324
    1    37	 1 ;       CG311       HGA1
    2     3	 1 ;       CG324      NG3P2
    2    38	 1 ;       CG324       HGA2
    2    39	 1 ;       CG324       HGA2
    3     5	 1 ;       NG3P2       HGP2
    3     4	 1 ;       NG3P2       HGP2
    3     6	 1 ;       NG3P2     CG3C31
    6     7	 1 ;      CG3C31     CG3C31
    6     8	 1 ;      CG3C31     CG3C31
    6     9	 1 ;      CG3C31      CG311
    7     8	 1 ;      CG3C31     CG3C31
    7    40	 1 ;      CG3C31       HGA2
    7    41	 1 ;      CG3C31       HGA2
    8    42	 1 ;      CG3C31       HGA2
    8    43	 1 ;      CG3C31       HGA2
    9    10	 1 ;       CG311      NG311
    9    15	 1 ;       CG311     CG2DC2
    9    65	 1 ;       CG311       HGA1
   10    12	 1 ;       NG311     HGPAM1
   10    11	 1 ;       NG311     CG2D1O
   11    13	 1 ;      CG2D1O     CG2DC1
   11    44	 1 ;      CG2D1O       HGA4
   13    14	 1 ;      CG2DC1     CG2DC2
   13    45	 1 ;      CG2DC1       HGA4
   14    15	 1 ;      CG2DC2     CG2DC2
   14    16	 1 ;      CG2DC2      CG301
   15    46	 1 ;      CG2DC2       HGA4
   16    18	 1 ;       CG301      CG331
   16    17	 1 ;       CG301      CG331
   16    19	 1 ;       CG301      CG331
   17    47	 1 ;       CG331       HGA3
   17    48	 1 ;       CG331       HGA3
   17    49	 1 ;       CG331       HGA3
   18    50	 1 ;       CG331       HGA3
   18    51	 1 ;       CG331       HGA3
   18    52	 1 ;       CG331       HGA3
   19    53	 1 ;       CG331       HGA3
   19    54	 1 ;       CG331       HGA3
   19    55	 1 ;       CG331       HGA3
   20    21	 1 ;       OG311       HGP1
   22    23	 1 ;       CG311      NG2S1
   22    28	 1 ;       CG311      CG321
   22    56	 1 ;       CG311       HGA1
   23    24	 1 ;       NG2S1      CG2O1
   23    27	 1 ;       NG2S1       HGP1
   24    26	 1 ;       CG2O1      CG331
   24    25	 1 ;       CG2O1      OG2D1
   26    57	 1 ;       CG331       HGA3
   26    58	 1 ;       CG331       HGA3
   26    59	 1 ;       CG331       HGA3
   28    29	 1 ;       CG321     CG2R61
   28    60	 1 ;       CG321       HGA2
   28    61	 1 ;       CG321       HGA2
   29    35	 1 ;      CG2R61     CG2R61
   29    30	 1 ;      CG2R61     CG2R61
   30    31	 1 ;      CG2R61     CG2R66
   30    62	 1 ;      CG2R61      HGR62
   31    33	 1 ;      CG2R66     CG2R61
   31    32	 1 ;      CG2R66       FGR1
   33    34	 1 ;      CG2R61     CG2R66
   33    63	 1 ;      CG2R61      HGR62
   34    36	 1 ;      CG2R66       FGR1
   34    35	 1 ;      CG2R66     CG2R61
   35    64	 1 ;      CG2R61      HGR62

[ pairs ]
;	ai	  aj funct			  c0			c1			  c2			c3
    1     5	 1
    1     4	 1
    1     6	 1
    1    24	 1
    1    27	 1
    1    29	 1
    1    60	 1
    1    61	 1
    2    21	 1
    2    23	 1
    2    28	 1
    2    56	 1
    2     7	 1
    2     8	 1
    2     9	 1
    3    20	 1
    3    22	 1
    3    37	 1
    3    40	 1
    3    41	 1
    3    42	 1
    3    43	 1
    3    10	 1
    3    15	 1
    3    65	 1
    4    38	 1
    4    39	 1
    4     7	 1
    4     8	 1
    4     9	 1
    5    38	 1
    5    39	 1
    5     7	 1
    5     8	 1
    5     9	 1
    6    38	 1
    6    39	 1
    6    12	 1
    6    11	 1
    6    14	 1
    6    46	 1
    7    10	 1
    7    15	 1
    7    65	 1
    8    10	 1
    8    15	 1
    8    65	 1
    9    40	 1
    9    41	 1
    9    42	 1
    9    43	 1
    9    13	 1
    9    44	 1
    9    16	 1
   10    14	 1
   10    46	 1
   10    45	 1
   11    15	 1
   11    65	 1
   11    16	 1
   12    15	 1
   12    65	 1
   12    13	 1
   12    44	 1
   13    46	 1
   13    18	 1
   13    17	 1
   13    19	 1
   14    65	 1
   14    44	 1
   14    50	 1
   14    51	 1
   14    52	 1
   14    47	 1
   14    48	 1
   14    49	 1
   14    53	 1
   14    54	 1
   14    55	 1
   15    45	 1
   15    18	 1
   15    17	 1
   15    19	 1
   16    45	 1
   16    46	 1
   17    50	 1
   17    51	 1
   17    52	 1
   17    53	 1
   17    54	 1
   17    55	 1
   18    47	 1
   18    48	 1
   18    49	 1
   18    53	 1
   18    54	 1
   18    55	 1
   19    50	 1
   19    51	 1
   19    52	 1
   19    47	 1
   19    48	 1
   19    49	 1
   20    23	 1
   20    28	 1
   20    56	 1
   20    38	 1
   20    39	 1
   21    22	 1
   21    37	 1
   22    38	 1
   22    39	 1
   22    26	 1
   22    25	 1
   22    35	 1
   22    30	 1
   23    37	 1
   23    29	 1
   23    60	 1
   23    61	 1
   23    57	 1
   23    58	 1
   23    59	 1
   24    28	 1
   24    56	 1
   25    27	 1
   25    57	 1
   25    58	 1
   25    59	 1
   26    27	 1
   27    28	 1
   27    56	 1
   28    37	 1
   28    34	 1
   28    64	 1
   28    31	 1
   28    62	 1
   29    56	 1
   29    33	 1
   29    32	 1
   29    36	 1
   30    60	 1
   30    61	 1
   30    34	 1
   30    64	 1
   30    63	 1
   31    35	 1
   31    36	 1
   32    62	 1
   32    34	 1
   32    63	 1
   33    62	 1
   33    64	 1
   35    60	 1
   35    61	 1
   35    62	 1
   35    63	 1
   36    63	 1
   36    64	 1
   37    56	 1
   37    38	 1
   37    39	 1
   40    42	 1
   40    43	 1
   41    42	 1
   41    43	 1
   44    45	 1
   46    65	 1
   56    60	 1
   56    61	 1

[ angles ]
;	ai	  aj	ak funct			c0			  c1			c2			  c3
   20     1    22	5 ;      OG311      CG311      CG311
   20     1     2	5 ;      OG311      CG311      CG324
   20     1    37	5 ;      OG311      CG311       HGA1
   22     1     2	5 ;      CG311      CG311      CG324
   22     1    37	5 ;      CG311      CG311       HGA1
    2     1    37	5 ;      CG324      CG311       HGA1
    1     2     3	5 ;      CG311      CG324      NG3P2
    1     2    38	5 ;      CG311      CG324       HGA2
    1     2    39	5 ;      CG311      CG324       HGA2
    3     2    38	5 ;      NG3P2      CG324       HGA2
    3     2    39	5 ;      NG3P2      CG324       HGA2
   38     2    39	5 ;       HGA2      CG324       HGA2
    5     3     4	5 ;       HGP2      NG3P2       HGP2
    5     3     2	5 ;       HGP2      NG3P2      CG324
    5     3     6	5 ;       HGP2      NG3P2     CG3C31
    4     3     2	5 ;       HGP2      NG3P2      CG324
    4     3     6	5 ;       HGP2      NG3P2     CG3C31
    2     3     6	5 ;      CG324      NG3P2     CG3C31
    3     6     7	5 ;      NG3P2     CG3C31     CG3C31
    3     6     8	5 ;      NG3P2     CG3C31     CG3C31
    3     6     9	5 ;      NG3P2     CG3C31      CG311
    7     6     8	5 ;     CG3C31     CG3C31     CG3C31
    7     6     9	5 ;     CG3C31     CG3C31      CG311
    8     6     9	5 ;     CG3C31     CG3C31      CG311
    6     7     8	5 ;     CG3C31     CG3C31     CG3C31
    6     7    40	5 ;     CG3C31     CG3C31       HGA2
    6     7    41	5 ;     CG3C31     CG3C31       HGA2
    8     7    40	5 ;     CG3C31     CG3C31       HGA2
    8     7    41	5 ;     CG3C31     CG3C31       HGA2
   40     7    41	5 ;       HGA2     CG3C31       HGA2
    7     8     6	5 ;     CG3C31     CG3C31     CG3C31
    7     8    42	5 ;     CG3C31     CG3C31       HGA2
    7     8    43	5 ;     CG3C31     CG3C31       HGA2
    6     8    42	5 ;     CG3C31     CG3C31       HGA2
    6     8    43	5 ;     CG3C31     CG3C31       HGA2
   42     8    43	5 ;       HGA2     CG3C31       HGA2
    6     9    10	5 ;     CG3C31      CG311      NG311
    6     9    15	5 ;     CG3C31      CG311     CG2DC2
    6     9    65	5 ;     CG3C31      CG311       HGA1
   10     9    15	5 ;      NG311      CG311     CG2DC2
   10     9    65	5 ;      NG311      CG311       HGA1
   15     9    65	5 ;     CG2DC2      CG311       HGA1
   12    10     9	5 ;     HGPAM1      NG311      CG311
   12    10    11	5 ;     HGPAM1      NG311     CG2D1O
    9    10    11	5 ;      CG311      NG311     CG2D1O
   10    11    13	5 ;      NG311     CG2D1O     CG2DC1
   10    11    44	5 ;      NG311     CG2D1O       HGA4
   13    11    44	5 ;     CG2DC1     CG2D1O       HGA4
   11    13    14	5 ;     CG2D1O     CG2DC1     CG2DC2
   11    13    45	5 ;     CG2D1O     CG2DC1       HGA4
   14    13    45	5 ;     CG2DC2     CG2DC1       HGA4
   15    14    13	5 ;     CG2DC2     CG2DC2     CG2DC1
   15    14    16	5 ;     CG2DC2     CG2DC2      CG301
   13    14    16	5 ;     CG2DC1     CG2DC2      CG301
    9    15    14	5 ;      CG311     CG2DC2     CG2DC2
    9    15    46	5 ;      CG311     CG2DC2       HGA4
   14    15    46	5 ;     CG2DC2     CG2DC2       HGA4
   14    16    18	5 ;     CG2DC2      CG301      CG331
   14    16    17	5 ;     CG2DC2      CG301      CG331
   14    16    19	5 ;     CG2DC2      CG301      CG331
   18    16    17	5 ;      CG331      CG301      CG331
   18    16    19	5 ;      CG331      CG301      CG331
   17    16    19	5 ;      CG331      CG301      CG331
   16    17    47	5 ;      CG301      CG331       HGA3
   16    17    48	5 ;      CG301      CG331       HGA3
   16    17    49	5 ;      CG301      CG331       HGA3
   47    17    48	5 ;       HGA3      CG331       HGA3
   47    17    49	5 ;       HGA3      CG331       HGA3
   48    17    49	5 ;       HGA3      CG331       HGA3
   16    18    50	5 ;      CG301      CG331       HGA3
   16    18    51	5 ;      CG301      CG331       HGA3
   16    18    52	5 ;      CG301      CG331       HGA3
   50    18    51	5 ;       HGA3      CG331       HGA3
   50    18    52	5 ;       HGA3      CG331       HGA3
   51    18    52	5 ;       HGA3      CG331       HGA3
   16    19    53	5 ;      CG301      CG331       HGA3
   16    19    54	5 ;      CG301      CG331       HGA3
   16    19    55	5 ;      CG301      CG331       HGA3
   53    19    54	5 ;       HGA3      CG331       HGA3
   53    19    55	5 ;       HGA3      CG331       HGA3
   54    19    55	5 ;       HGA3      CG331       HGA3
    1    20    21	5 ;      CG311      OG311       HGP1
   23    22     1	5 ;      NG2S1      CG311      CG311
   23    22    28	5 ;      NG2S1      CG311      CG321
   23    22    56	5 ;      NG2S1      CG311       HGA1
    1    22    28	5 ;      CG311      CG311      CG321
    1    22    56	5 ;      CG311      CG311       HGA1
   28    22    56	5 ;      CG321      CG311       HGA1
   24    23    27	5 ;      CG2O1      NG2S1       HGP1
   24    23    22	5 ;      CG2O1      NG2S1      CG311
   27    23    22	5 ;       HGP1      NG2S1      CG311
   26    24    25	5 ;      CG331      CG2O1      OG2D1
   26    24    23	5 ;      CG331      CG2O1      NG2S1
   25    24    23	5 ;      OG2D1      CG2O1      NG2S1
   24    26    57	5 ;      CG2O1      CG331       HGA3
   24    26    58	5 ;      CG2O1      CG331       HGA3
   24    26    59	5 ;      CG2O1      CG331       HGA3
   57    26    58	5 ;       HGA3      CG331       HGA3
   57    26    59	5 ;       HGA3      CG331       HGA3
   58    26    59	5 ;       HGA3      CG331       HGA3
   22    28    29	5 ;      CG311      CG321     CG2R61
   22    28    60	5 ;      CG311      CG321       HGA2
   22    28    61	5 ;      CG311      CG321       HGA2
   29    28    60	5 ;     CG2R61      CG321       HGA2
   29    28    61	5 ;     CG2R61      CG321       HGA2
   60    28    61	5 ;       HGA2      CG321       HGA2
   35    29    28	5 ;     CG2R61     CG2R61      CG321
   35    29    30	5 ;     CG2R61     CG2R61     CG2R61
   28    29    30	5 ;      CG321     CG2R61     CG2R61
   29    30    31	5 ;     CG2R61     CG2R61     CG2R66
   29    30    62	5 ;     CG2R61     CG2R61      HGR62
   31    30    62	5 ;     CG2R66     CG2R61      HGR62
   33    31    30	5 ;     CG2R61     CG2R66     CG2R61
   33    31    32	5 ;     CG2R61     CG2R66       FGR1
   30    31    32	5 ;     CG2R61     CG2R66       FGR1
   34    33    31	5 ;     CG2R66     CG2R61     CG2R66
   34    33    63	5 ;     CG2R66     CG2R61      HGR62
   31    33    63	5 ;     CG2R66     CG2R61      HGR62
   36    34    35	5 ;       FGR1     CG2R66     CG2R61
   36    34    33	5 ;       FGR1     CG2R66     CG2R61
   35    34    33	5 ;     CG2R61     CG2R66     CG2R61
   34    35    29	5 ;     CG2R66     CG2R61     CG2R61
   34    35    64	5 ;     CG2R66     CG2R61      HGR62
   29    35    64	5 ;     CG2R61     CG2R61      HGR62

[ dihedrals ]
;	ai	  aj	ak	  al funct			  c0			c1			  c2			c3			  c4			c5
   22     1    20    21	 9 ;      CG311      CG311      OG311       HGP1
    2     1    20    21	 9 ;      CG324      CG311      OG311       HGP1
   37     1    20    21	 9 ;       HGA1      CG311      OG311       HGP1
   20     1    22    23	 9 ;      OG311      CG311      CG311      NG2S1
   20     1    22    28	 9 ;      OG311      CG311      CG311      CG321
   20     1    22    56	 9 ;      OG311      CG311      CG311       HGA1
    2     1    22    23	 9 ;      CG324      CG311      CG311      NG2S1
    2     1    22    28	 9 ;      CG324      CG311      CG311      CG321
    2     1    22    56	 9 ;      CG324      CG311      CG311       HGA1
   37     1    22    23	 9 ;       HGA1      CG311      CG311      NG2S1
   37     1    22    28	 9 ;       HGA1      CG311      CG311      CG321
   37     1    22    56	 9 ;       HGA1      CG311      CG311       HGA1
   20     1     2     3	 9 ;      OG311      CG311      CG324      NG3P2
   20     1     2    38	 9 ;      OG311      CG311      CG324       HGA2
   20     1     2    39	 9 ;      OG311      CG311      CG324       HGA2
   22     1     2     3	 9 ;      CG311      CG311      CG324      NG3P2
   22     1     2    38	 9 ;      CG311      CG311      CG324       HGA2
   22     1     2    39	 9 ;      CG311      CG311      CG324       HGA2
   37     1     2     3	 9 ;       HGA1      CG311      CG324      NG3P2
   37     1     2    38	 9 ;       HGA1      CG311      CG324       HGA2
   37     1     2    39	 9 ;       HGA1      CG311      CG324       HGA2
    1     2     3     5	 9 ;      CG311      CG324      NG3P2       HGP2
    1     2     3     4	 9 ;      CG311      CG324      NG3P2       HGP2
    1     2     3     6	 9 ;      CG311      CG324      NG3P2     CG3C31
   38     2     3     5	 9 ;       HGA2      CG324      NG3P2       HGP2
   38     2     3     4	 9 ;       HGA2      CG324      NG3P2       HGP2
   38     2     3     6	 9 ;       HGA2      CG324      NG3P2     CG3C31
   39     2     3     5	 9 ;       HGA2      CG324      NG3P2       HGP2
   39     2     3     4	 9 ;       HGA2      CG324      NG3P2       HGP2
   39     2     3     6	 9 ;       HGA2      CG324      NG3P2     CG3C31
    5     3     6     7	 9 ;       HGP2      NG3P2     CG3C31     CG3C31
    5     3     6     8	 9 ;       HGP2      NG3P2     CG3C31     CG3C31
    5     3     6     9	 9 ;       HGP2      NG3P2     CG3C31      CG311
    4     3     6     7	 9 ;       HGP2      NG3P2     CG3C31     CG3C31
    4     3     6     8	 9 ;       HGP2      NG3P2     CG3C31     CG3C31
    4     3     6     9	 9 ;       HGP2      NG3P2     CG3C31      CG311
    2     3     6     7	 9 ;      CG324      NG3P2     CG3C31     CG3C31
    2     3     6     8	 9 ;      CG324      NG3P2     CG3C31     CG3C31
    2     3     6     9	 9 ;      CG324      NG3P2     CG3C31      CG311
    3     6     7     8	 9 ;      NG3P2     CG3C31     CG3C31     CG3C31
    3     6     7    40	 9 ;      NG3P2     CG3C31     CG3C31       HGA2
    3     6     7    41	 9 ;      NG3P2     CG3C31     CG3C31       HGA2
    8     6     7    40	 9 ;     CG3C31     CG3C31     CG3C31       HGA2
    8     6     7    41	 9 ;     CG3C31     CG3C31     CG3C31       HGA2
    9     6     7     8	 9 ;      CG311     CG3C31     CG3C31     CG3C31
    9     6     7    40	 9 ;      CG311     CG3C31     CG3C31       HGA2
    9     6     7    41	 9 ;      CG311     CG3C31     CG3C31       HGA2
    3     6     8     7	 9 ;      NG3P2     CG3C31     CG3C31     CG3C31
    3     6     8    42	 9 ;      NG3P2     CG3C31     CG3C31       HGA2
    3     6     8    43	 9 ;      NG3P2     CG3C31     CG3C31       HGA2
    7     6     8    42	 9 ;     CG3C31     CG3C31     CG3C31       HGA2
    7     6     8    43	 9 ;     CG3C31     CG3C31     CG3C31       HGA2
    9     6     8     7	 9 ;      CG311     CG3C31     CG3C31     CG3C31
    9     6     8    42	 9 ;      CG311     CG3C31     CG3C31       HGA2
    9     6     8    43	 9 ;      CG311     CG3C31     CG3C31       HGA2
    3     6     9    10	 9 ;      NG3P2     CG3C31      CG311      NG311
    3     6     9    15	 9 ;      NG3P2     CG3C31      CG311     CG2DC2
    3     6     9    65	 9 ;      NG3P2     CG3C31      CG311       HGA1
    7     6     9    10	 9 ;     CG3C31     CG3C31      CG311      NG311
    7     6     9    15	 9 ;     CG3C31     CG3C31      CG311     CG2DC2
    7     6     9    65	 9 ;     CG3C31     CG3C31      CG311       HGA1
    8     6     9    10	 9 ;     CG3C31     CG3C31      CG311      NG311
    8     6     9    15	 9 ;     CG3C31     CG3C31      CG311     CG2DC2
    8     6     9    65	 9 ;     CG3C31     CG3C31      CG311       HGA1
    6     7     8    42	 9 ;     CG3C31     CG3C31     CG3C31       HGA2
    6     7     8    43	 9 ;     CG3C31     CG3C31     CG3C31       HGA2
   40     7     8     6	 9 ;       HGA2     CG3C31     CG3C31     CG3C31
   40     7     8    42	 9 ;       HGA2     CG3C31     CG3C31       HGA2
   40     7     8    43	 9 ;       HGA2     CG3C31     CG3C31       HGA2
   41     7     8     6	 9 ;       HGA2     CG3C31     CG3C31     CG3C31
   41     7     8    42	 9 ;       HGA2     CG3C31     CG3C31       HGA2
   41     7     8    43	 9 ;       HGA2     CG3C31     CG3C31       HGA2
    6     9    10    12	 9 ;     CG3C31      CG311      NG311     HGPAM1
    6     9    10    11	 9 ;     CG3C31      CG311      NG311     CG2D1O
   15     9    10    12	 9 ;     CG2DC2      CG311      NG311     HGPAM1
   15     9    10    11	 9 ;     CG2DC2      CG311      NG311     CG2D1O
   65     9    10    12	 9 ;       HGA1      CG311      NG311     HGPAM1
   65     9    10    11	 9 ;       HGA1      CG311      NG311     CG2D1O
    6     9    15    14	 9 ;     CG3C31      CG311     CG2DC2     CG2DC2
    6     9    15    46	 9 ;     CG3C31      CG311     CG2DC2       HGA4
   10     9    15    14	 9 ;      NG311      CG311     CG2DC2     CG2DC2
   10     9    15    46	 9 ;      NG311      CG311     CG2DC2       HGA4
   65     9    15    14	 9 ;       HGA1      CG311     CG2DC2     CG2DC2
   65     9    15    46	 9 ;       HGA1      CG311     CG2DC2       HGA4
   12    10    11    13	 9 ;     HGPAM1      NG311     CG2D1O     CG2DC1
   12    10    11    44	 9 ;     HGPAM1      NG311     CG2D1O       HGA4
    9    10    11    13	 9 ;      CG311      NG311     CG2D1O     CG2DC1
    9    10    11    44	 9 ;      CG311      NG311     CG2D1O       HGA4
   10    11    13    14	 9 ;      NG311     CG2D1O     CG2DC1     CG2DC2
   10    11    13    45	 9 ;      NG311     CG2D1O     CG2DC1       HGA4
   44    11    13    14	 9 ;       HGA4     CG2D1O     CG2DC1     CG2DC2
   44    11    13    45	 9 ;       HGA4     CG2D1O     CG2DC1       HGA4
   11    13    14    15	 9 ;     CG2D1O     CG2DC1     CG2DC2     CG2DC2
   11    13    14    16	 9 ;     CG2D1O     CG2DC1     CG2DC2      CG301
   45    13    14    15	 9 ;       HGA4     CG2DC1     CG2DC2     CG2DC2
   45    13    14    16	 9 ;       HGA4     CG2DC1     CG2DC2      CG301
   13    14    15     9	 9 ;     CG2DC1     CG2DC2     CG2DC2      CG311
   13    14    15    46	 9 ;     CG2DC1     CG2DC2     CG2DC2       HGA4
   16    14    15     9	 9 ;      CG301     CG2DC2     CG2DC2      CG311
   16    14    15    46	 9 ;      CG301     CG2DC2     CG2DC2       HGA4
   15    14    16    18	 9 ;     CG2DC2     CG2DC2      CG301      CG331
   15    14    16    17	 9 ;     CG2DC2     CG2DC2      CG301      CG331
   15    14    16    19	 9 ;     CG2DC2     CG2DC2      CG301      CG331
   13    14    16    18	 9 ;     CG2DC1     CG2DC2      CG301      CG331
   13    14    16    17	 9 ;     CG2DC1     CG2DC2      CG301      CG331
   13    14    16    19	 9 ;     CG2DC1     CG2DC2      CG301      CG331
   14    16    18    50	 9 ;     CG2DC2      CG301      CG331       HGA3
   14    16    18    51	 9 ;     CG2DC2      CG301      CG331       HGA3
   14    16    18    52	 9 ;     CG2DC2      CG301      CG331       HGA3
   17    16    18    50	 9 ;      CG331      CG301      CG331       HGA3
   17    16    18    51	 9 ;      CG331      CG301      CG331       HGA3
   17    16    18    52	 9 ;      CG331      CG301      CG331       HGA3
   19    16    18    50	 9 ;      CG331      CG301      CG331       HGA3
   19    16    18    51	 9 ;      CG331      CG301      CG331       HGA3
   19    16    18    52	 9 ;      CG331      CG301      CG331       HGA3
   14    16    17    47	 9 ;     CG2DC2      CG301      CG331       HGA3
   14    16    17    48	 9 ;     CG2DC2      CG301      CG331       HGA3
   14    16    17    49	 9 ;     CG2DC2      CG301      CG331       HGA3
   18    16    17    47	 9 ;      CG331      CG301      CG331       HGA3
   18    16    17    48	 9 ;      CG331      CG301      CG331       HGA3
   18    16    17    49	 9 ;      CG331      CG301      CG331       HGA3
   19    16    17    47	 9 ;      CG331      CG301      CG331       HGA3
   19    16    17    48	 9 ;      CG331      CG301      CG331       HGA3
   19    16    17    49	 9 ;      CG331      CG301      CG331       HGA3
   14    16    19    53	 9 ;     CG2DC2      CG301      CG331       HGA3
   14    16    19    54	 9 ;     CG2DC2      CG301      CG331       HGA3
   14    16    19    55	 9 ;     CG2DC2      CG301      CG331       HGA3
   18    16    19    53	 9 ;      CG331      CG301      CG331       HGA3
   18    16    19    54	 9 ;      CG331      CG301      CG331       HGA3
   18    16    19    55	 9 ;      CG331      CG301      CG331       HGA3
   17    16    19    53	 9 ;      CG331      CG301      CG331       HGA3
   17    16    19    54	 9 ;      CG331      CG301      CG331       HGA3
   17    16    19    55	 9 ;      CG331      CG301      CG331       HGA3
    1    22    23    24	 9 ;      CG311      CG311      NG2S1      CG2O1
    1    22    23    27	 9 ;      CG311      CG311      NG2S1       HGP1
   28    22    23    24	 9 ;      CG321      CG311      NG2S1      CG2O1
   28    22    23    27	 9 ;      CG321      CG311      NG2S1       HGP1
   56    22    23    24	 9 ;       HGA1      CG311      NG2S1      CG2O1
   56    22    23    27	 9 ;       HGA1      CG311      NG2S1       HGP1
   23    22    28    29	 9 ;      NG2S1      CG311      CG321     CG2R61
   23    22    28    60	 9 ;      NG2S1      CG311      CG321       HGA2
   23    22    28    61	 9 ;      NG2S1      CG311      CG321       HGA2
    1    22    28    29	 9 ;      CG311      CG311      CG321     CG2R61
    1    22    28    60	 9 ;      CG311      CG311      CG321       HGA2
    1    22    28    61	 9 ;      CG311      CG311      CG321       HGA2
   56    22    28    29	 9 ;       HGA1      CG311      CG321     CG2R61
   56    22    28    60	 9 ;       HGA1      CG311      CG321       HGA2
   56    22    28    61	 9 ;       HGA1      CG311      CG321       HGA2
   27    23    24    26	 9 ;       HGP1      NG2S1      CG2O1      CG331
   27    23    24    25	 9 ;       HGP1      NG2S1      CG2O1      OG2D1
   22    23    24    26	 9 ;      CG311      NG2S1      CG2O1      CG331
   22    23    24    25	 9 ;      CG311      NG2S1      CG2O1      OG2D1
   25    24    26    57	 9 ;      OG2D1      CG2O1      CG331       HGA3
   25    24    26    58	 9 ;      OG2D1      CG2O1      CG331       HGA3
   25    24    26    59	 9 ;      OG2D1      CG2O1      CG331       HGA3
   23    24    26    57	 9 ;      NG2S1      CG2O1      CG331       HGA3
   23    24    26    58	 9 ;      NG2S1      CG2O1      CG331       HGA3
   23    24    26    59	 9 ;      NG2S1      CG2O1      CG331       HGA3
   22    28    29    35	 9 ;      CG311      CG321     CG2R61     CG2R61
   22    28    29    30	 9 ;      CG311      CG321     CG2R61     CG2R61
   60    28    29    35	 9 ;       HGA2      CG321     CG2R61     CG2R61
   60    28    29    30	 9 ;       HGA2      CG321     CG2R61     CG2R61
   61    28    29    35	 9 ;       HGA2      CG321     CG2R61     CG2R61
   61    28    29    30	 9 ;       HGA2      CG321     CG2R61     CG2R61
   28    29    35    34	 9 ;      CG321     CG2R61     CG2R61     CG2R66
   28    29    35    64	 9 ;      CG321     CG2R61     CG2R61      HGR62
   30    29    35    34	 9 ;     CG2R61     CG2R61     CG2R61     CG2R66
   30    29    35    64	 9 ;     CG2R61     CG2R61     CG2R61      HGR62
   35    29    30    31	 9 ;     CG2R61     CG2R61     CG2R61     CG2R66
   35    29    30    62	 9 ;     CG2R61     CG2R61     CG2R61      HGR62
   28    29    30    31	 9 ;      CG321     CG2R61     CG2R61     CG2R66
   28    29    30    62	 9 ;      CG321     CG2R61     CG2R61      HGR62
   29    30    31    33	 9 ;     CG2R61     CG2R61     CG2R66     CG2R61
   29    30    31    32	 9 ;     CG2R61     CG2R61     CG2R66       FGR1
   62    30    31    33	 9 ;      HGR62     CG2R61     CG2R66     CG2R61
   62    30    31    32	 9 ;      HGR62     CG2R61     CG2R66       FGR1
   30    31    33    34	 9 ;     CG2R61     CG2R66     CG2R61     CG2R66
   30    31    33    63	 9 ;     CG2R61     CG2R66     CG2R61      HGR62
   32    31    33    34	 9 ;       FGR1     CG2R66     CG2R61     CG2R66
   32    31    33    63	 9 ;       FGR1     CG2R66     CG2R61      HGR62
   31    33    34    36	 9 ;     CG2R66     CG2R61     CG2R66       FGR1
   31    33    34    35	 9 ;     CG2R66     CG2R61     CG2R66     CG2R61
   63    33    34    36	 9 ;      HGR62     CG2R61     CG2R66       FGR1
   63    33    34    35	 9 ;      HGR62     CG2R61     CG2R66     CG2R61
   36    34    35    29	 9 ;       FGR1     CG2R66     CG2R61     CG2R61
   36    34    35    64	 9 ;       FGR1     CG2R66     CG2R61      HGR62
   33    34    35    29	 9 ;     CG2R61     CG2R66     CG2R61     CG2R61
   33    34    35    64	 9 ;     CG2R61     CG2R66     CG2R61      HGR62

[ dihedrals ]
;	ai	  aj	ak	  al funct			  c0			c1			  c2			c3
   11    13    10    44	 2
   24    26    23    25	 2

