Giant Rising Ordinary Mutants for A Clerical Setup
   65
    1LIG     C1    1  -1.246   0.562  -1.545
    1LIG     C2    2  -1.383   0.626  -1.577
    1LIG     N1    3  -1.395   0.635  -1.727
    1LIG     H1    4  -1.370   0.732  -1.757
    1LIG     H2    5  -1.326   0.575  -1.774
    1LIG     C3    6  -1.531   0.611  -1.783
    1LIG     C4    7  -1.564   0.672  -1.916
    1LIG     C5    8  -1.619   0.733  -1.792
    1LIG     C6    9  -1.592   0.481  -1.733
    1LIG     N2   10  -1.544   0.366  -1.786
    1LIG     C7   11  -1.603   0.251  -1.750
    1LIG     HN   12  -1.465   0.367  -1.852
    1LIG     C8   13  -1.715   0.244  -1.668
    1LIG     C9   14  -1.771   0.362  -1.619
    1LIG    C10   15  -1.704   0.481  -1.650
    1LIG    C11   16  -1.901   0.367  -1.538
    1LIG    C12   17  -1.879   0.365  -1.385
    1LIG    C13   18  -1.980   0.495  -1.573
    1LIG    C14   19  -1.987   0.243  -1.574
    1LIG     O1   20  -1.199   0.614  -1.420
    1LIG     H3   21  -1.213   0.550  -1.347
    1LIG    C15   22  -1.248   0.407  -1.554
    1LIG     N3   23  -1.139   0.366  -1.644
    1LIG    C16   24  -1.155   0.353  -1.780
    1LIG     O2   25  -1.256   0.389  -1.839
    1LIG    C17   26  -1.030   0.304  -1.850
    1LIG     H4   27  -1.054   0.329  -1.603
    1LIG    C18   28  -1.230   0.339  -1.416
    1LIG    C19   29  -1.182   0.195  -1.426
    1LIG    C20   30  -1.253   0.100  -1.501
    1LIG    C21   31  -1.212  -0.033  -1.502
    1LIG     F1   32  -1.284  -0.123  -1.572
    1LIG    C22   33  -1.100  -0.075  -1.432
    1LIG    C23   34  -1.028   0.019  -1.361
    1LIG    C24   35  -1.067   0.153  -1.357
    1LIG     F2   36  -0.919  -0.019  -1.294
    1LIG     HC   37  -1.177   0.597  -1.621
    1LIG    HC2   38  -1.389   0.726  -1.534
    1LIG    HC3   39  -1.463   0.564  -1.538
    1LIG    HC4   40  -1.630   0.619  -1.985
    1LIG    HC5   41  -1.483   0.727  -1.964
    1LIG    HC6   42  -1.582   0.830  -1.758
    1LIG    HC7   43  -1.725   0.715  -1.774
    1LIG    HC1   44  -1.560   0.158  -1.785
    1LIG    HC8   45  -1.759   0.148  -1.643
    1LIG    HC9   46  -1.740   0.574  -1.609
    1LIG   HC10   47  -1.819   0.451  -1.356
    1LIG   HC11   48  -1.828   0.273  -1.357
    1LIG   HC12   49  -1.976   0.369  -1.335
    1LIG   HC13   50  -2.083   0.485  -1.538
    1LIG   HC14   51  -1.980   0.508  -1.681
    1LIG   HC15   52  -1.933   0.581  -1.526
    1LIG   HC16   53  -2.087   0.255  -1.532
    1LIG   HC17   54  -1.993   0.234  -1.682
    1LIG   HC18   55  -1.941   0.154  -1.532
    1LIG   HC19   56  -1.343   0.375  -1.597
    1LIG   HC20   57  -1.049   0.296  -1.957
    1LIG   HC21   58  -0.949   0.375  -1.832
    1LIG   HC22   59  -1.002   0.207  -1.810
    1LIG   HC23   60  -1.327   0.339  -1.365
    1LIG   HC24   61  -1.159   0.396  -1.357
    1LIG   HC25   62  -1.339   0.131  -1.558
    1LIG   HC26   63  -1.071  -0.179  -1.433
    1LIG   HC27   64  -1.009   0.225  -1.301
    1LIG    H34   65  -1.524   0.476  -1.648
   0.00000   0.00000   0.00000
