Georgetown Riga Oslo Madrid Amsterdam Chisinau Stockholm
   58
    1LIG     C1    1  -1.537   0.841  -1.601
    1LIG     C2    2  -1.610   0.963  -1.655
    1LIG      S    3  -1.724   0.922  -1.788
    1LIG     O1    4  -1.644   0.901  -1.907
    1LIG     O2    5  -1.831   1.019  -1.784
    1LIG     C3    6  -1.798   0.763  -1.754
    1LIG     C4    7  -1.723   0.667  -1.662
    1LIG     C5    8  -1.641   0.738  -1.552
    1LIG      N    9  -1.647   0.559  -1.738
    1LIG     H1   10  -1.692   0.543  -1.829
    1LIG     H2   11  -1.552   0.585  -1.765
    1LIG     C6   12  -1.640   0.423  -1.673
    1LIG     C7   13  -1.499   0.388  -1.636
    1LIG     C8   14  -1.466   0.352  -1.505
    1LIG     C9   15  -1.335   0.319  -1.470
    1LIG    C10   16  -1.235   0.322  -1.569
    1LIG    C11   17  -1.266   0.356  -1.699
    1LIG    C12   18  -1.397   0.390  -1.733
    1LIG    C13   19  -1.301   0.285  -1.325
    1LIG    C14   20  -1.237   0.147  -1.313
    1LIG    C15   21  -1.213   0.393  -1.263
    1LIG     O3   22  -1.730   0.799  -1.457
    1LIG     H3   23  -1.815   0.752  -1.444
    1LIG    C16   24  -1.437   0.781  -1.703
    1LIG    C17   25  -1.304   0.729  -1.654
    1LIG    C18   26  -1.196   0.718  -1.742
    1LIG    C19   27  -1.070   0.682  -1.692
    1LIG     BR   28  -0.924   0.668  -1.811
    1LIG    C20   29  -1.050   0.660  -1.556
    1LIG    C21   30  -1.158   0.671  -1.469
    1LIG    C22   31  -1.284   0.705  -1.517
    1LIG     HC   32  -1.480   0.873  -1.515
    1LIG    HC2   33  -1.537   1.034  -1.692
    1LIG    HC3   34  -1.666   1.009  -1.574
    1LIG    HC4   35  -1.811   0.712  -1.849
    1LIG    HC5   36  -1.896   0.780  -1.711
    1LIG    HC1   37  -1.801   0.613  -1.608
    1LIG    HC6   38  -1.586   0.661  -1.498
    1LIG    HC7   39  -1.678   0.348  -1.743
    1LIG    HC8   40  -1.701   0.422  -1.583
    1LIG    HC9   41  -1.544   0.350  -1.429
    1LIG   HC10   42  -1.133   0.296  -1.543
    1LIG   HC11   43  -1.189   0.358  -1.775
    1LIG   HC12   44  -1.421   0.418  -1.835
    1LIG   HC13   45  -1.395   0.283  -1.270
    1LIG   HC14   46  -1.303   0.072  -1.358
    1LIG   HC15   47  -1.223   0.123  -1.208
    1LIG   HC16   48  -1.141   0.147  -1.364
    1LIG   HC17   49  -1.262   0.490  -1.273
    1LIG   HC18   50  -1.199   0.371  -1.157
    1LIG   HC19   51  -1.117   0.395  -1.313
    1LIG   HC20   52  -1.487   0.698  -1.752
    1LIG   HC21   53  -1.417   0.858  -1.778
    1LIG   HC22   54  -1.209   0.736  -1.847
    1LIG   HC23   55  -0.952   0.634  -1.519
    1LIG   HC24   56  -1.143   0.654  -1.363
    1LIG   HC25   57  -1.367   0.712  -1.449
    1LIG    LP1   58  -0.778   0.653  -1.931
   0.00000   0.00000   0.00000
