; Created by cgenff_charmm2gmx.py

[ moleculetype ]
; Name			   nrexcl
LIG				 3

[ atoms ]
;	 nr		  type	resnr residue  atom   cgnr	   charge		mass  typeB    chargeB		massB
; residue	 1 LIG rtp LIG q	qsum
     1      CG311      1    LIG     C1      1      0.089     12.011   ;
     2      CG324      1    LIG     C2      2      0.191     12.011   ;
     3      NG3P2      1    LIG     N1      3     -0.445     14.007   ;
     4       HGP2      1    LIG     H1      4      0.339      1.008   ;
     5       HGP2      1    LIG     H2      5      0.339      1.008   ;
     6      CG314      1    LIG     C3      6      0.361     12.011   ;
     7      CG321      1    LIG     C4      7     -0.254     12.011   ;
     8     CG3C41      1    LIG     C5      8      0.278     12.011   ;
     9     OG3C61      1    LIG     O1      9     -0.389     15.999   ;
    10     CG3C41      1    LIG     C6     10     -0.203     12.011   ;
    11     CG3C41      1    LIG     C7     11     -0.203     12.011   ;
    12      CG311      1    LIG     C8     12      0.450     12.011   ;
    13      NG311      1    LIG     N2     13     -0.567     14.007   ;
    14     CG2DC1      1    LIG     C9     14     -0.330     12.011   ;
    15     CG2D2O      1    LIG    C10     15     -0.109     12.011   ;
    16     HGPAM1      1    LIG    HN1     16      0.368      1.008   ;
    17     CG2DC2      1    LIG    C11     17      0.091     12.011   ;
    18     CG2DC1      1    LIG    C12     18     -0.108     12.011   ;
    19     CG3C41      1    LIG    C13     19     -0.168     12.011   ;
    20      CG321      1    LIG    C14     20     -0.131     12.011   ;
    21      CG301      1    LIG    C15     21     -0.287     12.011   ;
    22      CG331      1    LIG    C16     22     -0.197     12.011   ;
    23      CG331      1    LIG    C17     23     -0.197     12.011   ;
    24      CG331      1    LIG    C18     24     -0.197     12.011   ;
    25      OG311      1    LIG     O2     25     -0.625     15.999   ;
    26       HGP1      1    LIG     H3     26      0.415      1.008   ;
    27      CG311      1    LIG    C19     27     -0.004     12.011   ;
    28      NG2S1      1    LIG     N3     28     -0.398     14.007   ;
    29      CG2O1      1    LIG    C20     29      0.454     12.011   ;
    30      OG2D1      1    LIG     O3     30     -0.511     15.999   ;
    31       HGP1      1    LIG     H4     31      0.281      1.008   ;
    32      CG321      1    LIG    C21     32     -0.095     12.011   ;
    33      CG331      1    LIG    C22     33     -0.283     12.011   ;
    34      CG321      1    LIG    C23     34     -0.111     12.011   ;
    35     CG2R61      1    LIG    C24     35     -0.015     12.011   ;
    36     CG2R61      1    LIG    C25     36     -0.178     12.011   ;
    37     CG2R61      1    LIG    C26     37      0.103     12.011   ;
    38     CG2R61      1    LIG    C27     38     -0.171     12.011   ;
    39     CG2R61      1    LIG    C28     39     -0.108     12.011   ;
    40     CG2R61      1    LIG    C29     40     -0.123     12.011   ;
    41     CG3C51      1    LIG    C30     41      0.136     12.011   ;
    42     NG3C51      1    LIG     N4     42     -0.402     14.007   ;
    43     CG2R51      1    LIG    C31     43     -0.034     12.011   ;
    44       HGP1      1    LIG    HN2     44      0.225      1.008   ;
    45     CG2R51      1    LIG    C32     45     -0.165     12.011   ;
    46      SG311      1    LIG      S     46     -0.319     32.060   ;
    47       HGA1      1    LIG     H5     47      0.090      1.008   ;
    48       HGA2      1    LIG     H6     48      0.090      1.008   ;
    49       HGA2      1    LIG     H7     49      0.090      1.008   ;
    50       HGA1      1    LIG     H8     50      0.090      1.008   ;
    51       HGA2      1    LIG     H9     51      0.090      1.008   ;
    52       HGA2      1    LIG    H10     52      0.090      1.008   ;
    53       HGA2      1    LIG    H11     53      0.090      1.008   ;
    54       HGA2      1    LIG    H12     54      0.090      1.008   ;
    55       HGA2      1    LIG    H13     55      0.090      1.008   ;
    56       HGA2      1    LIG    H14     56      0.090      1.008   ;
    57       HGA1      1    LIG    H15     57      0.090      1.008   ;
    58       HGA4      1    LIG    H16     58      0.158      1.008   ;
    59       HGA4      1    LIG    H17     59      0.143      1.008   ;
    60       HGA2      1    LIG    H18     60      0.090      1.008   ;
    61       HGA2      1    LIG    H19     61      0.090      1.008   ;
    62       HGA2      1    LIG    H20     62      0.090      1.008   ;
    63       HGA2      1    LIG    H21     63      0.090      1.008   ;
    64       HGA3      1    LIG    H22     64      0.090      1.008   ;
    65       HGA3      1    LIG    H23     65      0.090      1.008   ;
    66       HGA3      1    LIG    H24     66      0.090      1.008   ;
    67       HGA3      1    LIG    H25     67      0.090      1.008   ;
    68       HGA3      1    LIG    H26     68      0.090      1.008   ;
    69       HGA3      1    LIG    H27     69      0.090      1.008   ;
    70       HGA3      1    LIG    H28     70      0.090      1.008   ;
    71       HGA3      1    LIG    H29     71      0.090      1.008   ;
    72       HGA3      1    LIG    H30     72      0.090      1.008   ;
    73       HGA1      1    LIG    H31     73      0.090      1.008   ;
    74       HGA2      1    LIG    H32     74      0.090      1.008   ;
    75       HGA2      1    LIG    H33     75      0.090      1.008   ;
    76       HGA3      1    LIG    H34     76      0.090      1.008   ;
    77       HGA3      1    LIG    H35     77      0.090      1.008   ;
    78       HGA3      1    LIG    H36     78      0.090      1.008   ;
    79       HGA2      1    LIG    H37     79      0.090      1.008   ;
    80       HGA2      1    LIG    H38     80      0.090      1.008   ;
    81      HGR61      1    LIG    H39     81      0.116      1.008   ;
    82      HGR61      1    LIG    H40     82      0.116      1.008   ;
    83      HGR61      1    LIG    H41     83      0.116      1.008   ;
    84      HGR61      1    LIG    H42     84      0.116      1.008   ;
    85       HGA1      1    LIG    H43     85      0.090      1.008   ;
    86      HGR52      1    LIG    H44     86      0.239      1.008   ;
    87      HGR52      1    LIG    H45     87      0.233      1.008   ;

[ bonds ]
;	ai	  aj funct			  c0			c1			  c2			c3
    1    25	 1 ;       CG311      OG311
    1     2	 1 ;       CG311      CG324
    1    27	 1 ;       CG311      CG311
    1    47	 1 ;       CG311       HGA1
    2     3	 1 ;       CG324      NG3P2
    2    48	 1 ;       CG324       HGA2
    2    49	 1 ;       CG324       HGA2
    3     6	 1 ;       NG3P2      CG314
    3     5	 1 ;       NG3P2       HGP2
    3     4	 1 ;       NG3P2       HGP2
    6     7	 1 ;       CG314      CG321
    6    14	 1 ;       CG314     CG2DC1
    6    50	 1 ;       CG314       HGA1
    7     8	 1 ;       CG321     CG3C41
    7    51	 1 ;       CG321       HGA2
    7    52	 1 ;       CG321       HGA2
    8    11	 1 ;      CG3C41     CG3C41
    8    10	 1 ;      CG3C41     CG3C41
    8     9	 1 ;      CG3C41     OG3C61
    9    12	 1 ;      OG3C61      CG311
   10    19	 1 ;      CG3C41     CG3C41
   10    53	 1 ;      CG3C41       HGA2
   10    54	 1 ;      CG3C41       HGA2
   11    19	 1 ;      CG3C41     CG3C41
   11    55	 1 ;      CG3C41       HGA2
   11    56	 1 ;      CG3C41       HGA2
   12    13	 1 ;       CG311      NG311
   12    14	 1 ;       CG311     CG2DC1
   12    57	 1 ;       CG311       HGA1
   13    16	 1 ;       NG311     HGPAM1
   13    15	 1 ;       NG311     CG2D2O
   14    18	 1 ;      CG2DC1     CG2DC1
   15    17	 1 ;      CG2D2O     CG2DC2
   15    58	 1 ;      CG2D2O       HGA4
   17    18	 1 ;      CG2DC2     CG2DC1
   17    20	 1 ;      CG2DC2      CG321
   18    59	 1 ;      CG2DC1       HGA4
   19    60	 1 ;      CG3C41       HGA2
   19    61	 1 ;      CG3C41       HGA2
   20    21	 1 ;       CG321      CG301
   20    62	 1 ;       CG321       HGA2
   20    63	 1 ;       CG321       HGA2
   21    22	 1 ;       CG301      CG331
   21    24	 1 ;       CG301      CG331
   21    23	 1 ;       CG301      CG331
   22    64	 1 ;       CG331       HGA3
   22    65	 1 ;       CG331       HGA3
   22    66	 1 ;       CG331       HGA3
   23    67	 1 ;       CG331       HGA3
   23    68	 1 ;       CG331       HGA3
   23    69	 1 ;       CG331       HGA3
   24    70	 1 ;       CG331       HGA3
   24    71	 1 ;       CG331       HGA3
   24    72	 1 ;       CG331       HGA3
   25    26	 1 ;       OG311       HGP1
   27    28	 1 ;       CG311      NG2S1
   27    34	 1 ;       CG311      CG321
   27    73	 1 ;       CG311       HGA1
   28    29	 1 ;       NG2S1      CG2O1
   28    31	 1 ;       NG2S1       HGP1
   29    30	 1 ;       CG2O1      OG2D1
   29    32	 1 ;       CG2O1      CG321
   32    33	 1 ;       CG321      CG331
   32    74	 1 ;       CG321       HGA2
   32    75	 1 ;       CG321       HGA2
   33    76	 1 ;       CG331       HGA3
   33    77	 1 ;       CG331       HGA3
   33    78	 1 ;       CG331       HGA3
   34    35	 1 ;       CG321     CG2R61
   34    79	 1 ;       CG321       HGA2
   34    80	 1 ;       CG321       HGA2
   35    40	 1 ;      CG2R61     CG2R61
   35    36	 1 ;      CG2R61     CG2R61
   36    37	 1 ;      CG2R61     CG2R61
   36    81	 1 ;      CG2R61      HGR61
   37    38	 1 ;      CG2R61     CG2R61
   37    41	 1 ;      CG2R61     CG3C51
   38    39	 1 ;      CG2R61     CG2R61
   38    82	 1 ;      CG2R61      HGR61
   39    40	 1 ;      CG2R61     CG2R61
   39    83	 1 ;      CG2R61      HGR61
   40    84	 1 ;      CG2R61      HGR61
   41    42	 1 ;      CG3C51     NG3C51
   41    46	 1 ;      CG3C51      SG311
   41    85	 1 ;      CG3C51       HGA1
   42    44	 1 ;      NG3C51       HGP1
   42    43	 1 ;      NG3C51     CG2R51
   43    45	 1 ;      CG2R51     CG2R51
   43    86	 1 ;      CG2R51      HGR52
   45    46	 1 ;      CG2R51      SG311
   45    87	 1 ;      CG2R51      HGR52

[ pairs ]
;	ai	  aj funct			  c0			c1			  c2			c3
    1     6	 1
    1     5	 1
    1     4	 1
    1    29	 1
    1    31	 1
    1    35	 1
    1    79	 1
    1    80	 1
    2    26	 1
    2    28	 1
    2    34	 1
    2    73	 1
    2     7	 1
    2    14	 1
    2    50	 1
    3    25	 1
    3    27	 1
    3    47	 1
    3     8	 1
    3    51	 1
    3    52	 1
    3    12	 1
    3    18	 1
    4    48	 1
    4    49	 1
    4     7	 1
    4    14	 1
    4    50	 1
    5    48	 1
    5    49	 1
    5     7	 1
    5    14	 1
    5    50	 1
    6    48	 1
    6    49	 1
    6    11	 1
    6    10	 1
    6     9	 1
    6    13	 1
    6    57	 1
    6    17	 1
    6    59	 1
    7    12	 1
    7    18	 1
    7    19	 1
    7    55	 1
    7    56	 1
    7    53	 1
    7    54	 1
    8    14	 1
    8    50	 1
    8    13	 1
    8    57	 1
    8    60	 1
    8    61	 1
    9    51	 1
    9    52	 1
    9    19	 1
    9    55	 1
    9    56	 1
    9    53	 1
    9    54	 1
    9    16	 1
    9    15	 1
    9    18	 1
   10    51	 1
   10    52	 1
   10    55	 1
   10    56	 1
   10    12	 1
   11    51	 1
   11    52	 1
   11    53	 1
   11    54	 1
   11    12	 1
   12    50	 1
   12    17	 1
   12    58	 1
   12    59	 1
   13    18	 1
   13    20	 1
   14    51	 1
   14    52	 1
   14    16	 1
   14    15	 1
   14    20	 1
   15    57	 1
   15    59	 1
   15    21	 1
   15    62	 1
   15    63	 1
   16    57	 1
   16    17	 1
   16    58	 1
   17    22	 1
   17    24	 1
   17    23	 1
   18    50	 1
   18    57	 1
   18    58	 1
   18    21	 1
   18    62	 1
   18    63	 1
   20    58	 1
   20    59	 1
   20    64	 1
   20    65	 1
   20    66	 1
   20    70	 1
   20    71	 1
   20    72	 1
   20    67	 1
   20    68	 1
   20    69	 1
   22    62	 1
   22    63	 1
   22    70	 1
   22    71	 1
   22    72	 1
   22    67	 1
   22    68	 1
   22    69	 1
   23    62	 1
   23    63	 1
   23    64	 1
   23    65	 1
   23    66	 1
   23    70	 1
   23    71	 1
   23    72	 1
   24    62	 1
   24    63	 1
   24    64	 1
   24    65	 1
   24    66	 1
   24    67	 1
   24    68	 1
   24    69	 1
   25    48	 1
   25    49	 1
   25    28	 1
   25    34	 1
   25    73	 1
   26    27	 1
   26    47	 1
   27    48	 1
   27    49	 1
   27    30	 1
   27    32	 1
   27    40	 1
   27    36	 1
   28    47	 1
   28    35	 1
   28    79	 1
   28    80	 1
   28    33	 1
   28    74	 1
   28    75	 1
   29    34	 1
   29    73	 1
   29    76	 1
   29    77	 1
   29    78	 1
   30    31	 1
   30    33	 1
   30    74	 1
   30    75	 1
   31    34	 1
   31    73	 1
   31    32	 1
   34    47	 1
   34    39	 1
   34    84	 1
   34    37	 1
   34    81	 1
   35    73	 1
   35    38	 1
   35    41	 1
   35    83	 1
   36    79	 1
   36    80	 1
   36    39	 1
   36    84	 1
   36    82	 1
   36    42	 1
   36    46	 1
   36    85	 1
   37    40	 1
   37    83	 1
   37    44	 1
   37    43	 1
   37    45	 1
   38    81	 1
   38    42	 1
   38    46	 1
   38    85	 1
   38    84	 1
   39    41	 1
   40    79	 1
   40    80	 1
   40    81	 1
   40    82	 1
   41    81	 1
   41    82	 1
   41    86	 1
   41    87	 1
   42    87	 1
   43    85	 1
   44    46	 1
   44    85	 1
   44    45	 1
   44    86	 1
   45    85	 1
   46    86	 1
   47    48	 1
   47    49	 1
   47    73	 1
   50    51	 1
   50    52	 1
   53    60	 1
   53    61	 1
   54    60	 1
   54    61	 1
   55    60	 1
   55    61	 1
   56    60	 1
   56    61	 1
   73    79	 1
   73    80	 1
   74    76	 1
   74    77	 1
   74    78	 1
   75    76	 1
   75    77	 1
   75    78	 1
   82    83	 1
   83    84	 1
   86    87	 1

[ angles ]
;	ai	  aj	ak funct			c0			  c1			c2			  c3
   25     1     2	5 ;      OG311      CG311      CG324
   25     1    27	5 ;      OG311      CG311      CG311
   25     1    47	5 ;      OG311      CG311       HGA1
    2     1    27	5 ;      CG324      CG311      CG311
    2     1    47	5 ;      CG324      CG311       HGA1
   27     1    47	5 ;      CG311      CG311       HGA1
    1     2     3	5 ;      CG311      CG324      NG3P2
    1     2    48	5 ;      CG311      CG324       HGA2
    1     2    49	5 ;      CG311      CG324       HGA2
    3     2    48	5 ;      NG3P2      CG324       HGA2
    3     2    49	5 ;      NG3P2      CG324       HGA2
   48     2    49	5 ;       HGA2      CG324       HGA2
    6     3     2	5 ;      CG314      NG3P2      CG324
    6     3     5	5 ;      CG314      NG3P2       HGP2
    6     3     4	5 ;      CG314      NG3P2       HGP2
    2     3     5	5 ;      CG324      NG3P2       HGP2
    2     3     4	5 ;      CG324      NG3P2       HGP2
    5     3     4	5 ;       HGP2      NG3P2       HGP2
    7     6    14	5 ;      CG321      CG314     CG2DC1
    7     6     3	5 ;      CG321      CG314      NG3P2
    7     6    50	5 ;      CG321      CG314       HGA1
   14     6     3	5 ;     CG2DC1      CG314      NG3P2
   14     6    50	5 ;     CG2DC1      CG314       HGA1
    3     6    50	5 ;      NG3P2      CG314       HGA1
    8     7     6	5 ;     CG3C41      CG321      CG314
    8     7    51	5 ;     CG3C41      CG321       HGA2
    8     7    52	5 ;     CG3C41      CG321       HGA2
    6     7    51	5 ;      CG314      CG321       HGA2
    6     7    52	5 ;      CG314      CG321       HGA2
   51     7    52	5 ;       HGA2      CG321       HGA2
   11     8    10	5 ;     CG3C41     CG3C41     CG3C41
   11     8     9	5 ;     CG3C41     CG3C41     OG3C61
   11     8     7	5 ;     CG3C41     CG3C41      CG321
   10     8     9	5 ;     CG3C41     CG3C41     OG3C61
   10     8     7	5 ;     CG3C41     CG3C41      CG321
    9     8     7	5 ;     OG3C61     CG3C41      CG321
    8     9    12	5 ;     CG3C41     OG3C61      CG311
   19    10     8	5 ;     CG3C41     CG3C41     CG3C41
   19    10    53	5 ;     CG3C41     CG3C41       HGA2
   19    10    54	5 ;     CG3C41     CG3C41       HGA2
    8    10    53	5 ;     CG3C41     CG3C41       HGA2
    8    10    54	5 ;     CG3C41     CG3C41       HGA2
   53    10    54	5 ;       HGA2     CG3C41       HGA2
   19    11     8	5 ;     CG3C41     CG3C41     CG3C41
   19    11    55	5 ;     CG3C41     CG3C41       HGA2
   19    11    56	5 ;     CG3C41     CG3C41       HGA2
    8    11    55	5 ;     CG3C41     CG3C41       HGA2
    8    11    56	5 ;     CG3C41     CG3C41       HGA2
   55    11    56	5 ;       HGA2     CG3C41       HGA2
    9    12    13	5 ;     OG3C61      CG311      NG311
    9    12    14	5 ;     OG3C61      CG311     CG2DC1
    9    12    57	5 ;     OG3C61      CG311       HGA1
   13    12    14	5 ;      NG311      CG311     CG2DC1
   13    12    57	5 ;      NG311      CG311       HGA1
   14    12    57	5 ;     CG2DC1      CG311       HGA1
   16    13    12	5 ;     HGPAM1      NG311      CG311
   16    13    15	5 ;     HGPAM1      NG311     CG2D2O
   12    13    15	5 ;      CG311      NG311     CG2D2O
   12    14     6	5 ;      CG311     CG2DC1      CG314
   12    14    18	5 ;      CG311     CG2DC1     CG2DC1
    6    14    18	5 ;      CG314     CG2DC1     CG2DC1
   13    15    17	5 ;      NG311     CG2D2O     CG2DC2
   13    15    58	5 ;      NG311     CG2D2O       HGA4
   17    15    58	5 ;     CG2DC2     CG2D2O       HGA4
   15    17    18	5 ;     CG2D2O     CG2DC2     CG2DC1
   15    17    20	5 ;     CG2D2O     CG2DC2      CG321
   18    17    20	5 ;     CG2DC1     CG2DC2      CG321
   14    18    17	5 ;     CG2DC1     CG2DC1     CG2DC2
   14    18    59	5 ;     CG2DC1     CG2DC1       HGA4
   17    18    59	5 ;     CG2DC2     CG2DC1       HGA4
   11    19    10	5 ;     CG3C41     CG3C41     CG3C41
   11    19    60	5 ;     CG3C41     CG3C41       HGA2
   11    19    61	5 ;     CG3C41     CG3C41       HGA2
   10    19    60	5 ;     CG3C41     CG3C41       HGA2
   10    19    61	5 ;     CG3C41     CG3C41       HGA2
   60    19    61	5 ;       HGA2     CG3C41       HGA2
   17    20    21	5 ;     CG2DC2      CG321      CG301
   17    20    62	5 ;     CG2DC2      CG321       HGA2
   17    20    63	5 ;     CG2DC2      CG321       HGA2
   21    20    62	5 ;      CG301      CG321       HGA2
   21    20    63	5 ;      CG301      CG321       HGA2
   62    20    63	5 ;       HGA2      CG321       HGA2
   20    21    22	5 ;      CG321      CG301      CG331
   20    21    24	5 ;      CG321      CG301      CG331
   20    21    23	5 ;      CG321      CG301      CG331
   22    21    24	5 ;      CG331      CG301      CG331
   22    21    23	5 ;      CG331      CG301      CG331
   24    21    23	5 ;      CG331      CG301      CG331
   21    22    64	5 ;      CG301      CG331       HGA3
   21    22    65	5 ;      CG301      CG331       HGA3
   21    22    66	5 ;      CG301      CG331       HGA3
   64    22    65	5 ;       HGA3      CG331       HGA3
   64    22    66	5 ;       HGA3      CG331       HGA3
   65    22    66	5 ;       HGA3      CG331       HGA3
   21    23    67	5 ;      CG301      CG331       HGA3
   21    23    68	5 ;      CG301      CG331       HGA3
   21    23    69	5 ;      CG301      CG331       HGA3
   67    23    68	5 ;       HGA3      CG331       HGA3
   67    23    69	5 ;       HGA3      CG331       HGA3
   68    23    69	5 ;       HGA3      CG331       HGA3
   21    24    70	5 ;      CG301      CG331       HGA3
   21    24    71	5 ;      CG301      CG331       HGA3
   21    24    72	5 ;      CG301      CG331       HGA3
   70    24    71	5 ;       HGA3      CG331       HGA3
   70    24    72	5 ;       HGA3      CG331       HGA3
   71    24    72	5 ;       HGA3      CG331       HGA3
   26    25     1	5 ;       HGP1      OG311      CG311
    1    27    28	5 ;      CG311      CG311      NG2S1
    1    27    34	5 ;      CG311      CG311      CG321
    1    27    73	5 ;      CG311      CG311       HGA1
   28    27    34	5 ;      NG2S1      CG311      CG321
   28    27    73	5 ;      NG2S1      CG311       HGA1
   34    27    73	5 ;      CG321      CG311       HGA1
   27    28    29	5 ;      CG311      NG2S1      CG2O1
   27    28    31	5 ;      CG311      NG2S1       HGP1
   29    28    31	5 ;      CG2O1      NG2S1       HGP1
   30    29    28	5 ;      OG2D1      CG2O1      NG2S1
   30    29    32	5 ;      OG2D1      CG2O1      CG321
   28    29    32	5 ;      NG2S1      CG2O1      CG321
   33    32    29	5 ;      CG331      CG321      CG2O1
   33    32    74	5 ;      CG331      CG321       HGA2
   33    32    75	5 ;      CG331      CG321       HGA2
   29    32    74	5 ;      CG2O1      CG321       HGA2
   29    32    75	5 ;      CG2O1      CG321       HGA2
   74    32    75	5 ;       HGA2      CG321       HGA2
   32    33    76	5 ;      CG321      CG331       HGA3
   32    33    77	5 ;      CG321      CG331       HGA3
   32    33    78	5 ;      CG321      CG331       HGA3
   76    33    77	5 ;       HGA3      CG331       HGA3
   76    33    78	5 ;       HGA3      CG331       HGA3
   77    33    78	5 ;       HGA3      CG331       HGA3
   27    34    35	5 ;      CG311      CG321     CG2R61
   27    34    79	5 ;      CG311      CG321       HGA2
   27    34    80	5 ;      CG311      CG321       HGA2
   35    34    79	5 ;     CG2R61      CG321       HGA2
   35    34    80	5 ;     CG2R61      CG321       HGA2
   79    34    80	5 ;       HGA2      CG321       HGA2
   40    35    34	5 ;     CG2R61     CG2R61      CG321
   40    35    36	5 ;     CG2R61     CG2R61     CG2R61
   34    35    36	5 ;      CG321     CG2R61     CG2R61
   35    36    37	5 ;     CG2R61     CG2R61     CG2R61
   35    36    81	5 ;     CG2R61     CG2R61      HGR61
   37    36    81	5 ;     CG2R61     CG2R61      HGR61
   38    37    36	5 ;     CG2R61     CG2R61     CG2R61
   38    37    41	5 ;     CG2R61     CG2R61     CG3C51
   36    37    41	5 ;     CG2R61     CG2R61     CG3C51
   39    38    37	5 ;     CG2R61     CG2R61     CG2R61
   39    38    82	5 ;     CG2R61     CG2R61      HGR61
   37    38    82	5 ;     CG2R61     CG2R61      HGR61
   40    39    38	5 ;     CG2R61     CG2R61     CG2R61
   40    39    83	5 ;     CG2R61     CG2R61      HGR61
   38    39    83	5 ;     CG2R61     CG2R61      HGR61
   39    40    35	5 ;     CG2R61     CG2R61     CG2R61
   39    40    84	5 ;     CG2R61     CG2R61      HGR61
   35    40    84	5 ;     CG2R61     CG2R61      HGR61
   37    41    42	5 ;     CG2R61     CG3C51     NG3C51
   37    41    46	5 ;     CG2R61     CG3C51      SG311
   37    41    85	5 ;     CG2R61     CG3C51       HGA1
   42    41    46	5 ;     NG3C51     CG3C51      SG311
   42    41    85	5 ;     NG3C51     CG3C51       HGA1
   46    41    85	5 ;      SG311     CG3C51       HGA1
   44    42    41	5 ;       HGP1     NG3C51     CG3C51
   44    42    43	5 ;       HGP1     NG3C51     CG2R51
   41    42    43	5 ;     CG3C51     NG3C51     CG2R51
   42    43    45	5 ;     NG3C51     CG2R51     CG2R51
   42    43    86	5 ;     NG3C51     CG2R51      HGR52
   45    43    86	5 ;     CG2R51     CG2R51      HGR52
   46    45    43	5 ;      SG311     CG2R51     CG2R51
   46    45    87	5 ;      SG311     CG2R51      HGR52
   43    45    87	5 ;     CG2R51     CG2R51      HGR52
   41    46    45	5 ;     CG3C51      SG311     CG2R51

[ dihedrals ]
;	ai	  aj	ak	  al funct			  c0			c1			  c2			c3			  c4			c5
    2     1    25    26	 9 ;      CG324      CG311      OG311       HGP1
   27     1    25    26	 9 ;      CG311      CG311      OG311       HGP1
   47     1    25    26	 9 ;       HGA1      CG311      OG311       HGP1
   25     1     2     3	 9 ;      OG311      CG311      CG324      NG3P2
   25     1     2    48	 9 ;      OG311      CG311      CG324       HGA2
   25     1     2    49	 9 ;      OG311      CG311      CG324       HGA2
   27     1     2     3	 9 ;      CG311      CG311      CG324      NG3P2
   27     1     2    48	 9 ;      CG311      CG311      CG324       HGA2
   27     1     2    49	 9 ;      CG311      CG311      CG324       HGA2
   47     1     2     3	 9 ;       HGA1      CG311      CG324      NG3P2
   47     1     2    48	 9 ;       HGA1      CG311      CG324       HGA2
   47     1     2    49	 9 ;       HGA1      CG311      CG324       HGA2
   25     1    27    28	 9 ;      OG311      CG311      CG311      NG2S1
   25     1    27    34	 9 ;      OG311      CG311      CG311      CG321
   25     1    27    73	 9 ;      OG311      CG311      CG311       HGA1
    2     1    27    28	 9 ;      CG324      CG311      CG311      NG2S1
    2     1    27    34	 9 ;      CG324      CG311      CG311      CG321
    2     1    27    73	 9 ;      CG324      CG311      CG311       HGA1
   47     1    27    28	 9 ;       HGA1      CG311      CG311      NG2S1
   47     1    27    34	 9 ;       HGA1      CG311      CG311      CG321
   47     1    27    73	 9 ;       HGA1      CG311      CG311       HGA1
    1     2     3     6	 9 ;      CG311      CG324      NG3P2      CG314
    1     2     3     5	 9 ;      CG311      CG324      NG3P2       HGP2
    1     2     3     4	 9 ;      CG311      CG324      NG3P2       HGP2
   48     2     3     6	 9 ;       HGA2      CG324      NG3P2      CG314
   48     2     3     5	 9 ;       HGA2      CG324      NG3P2       HGP2
   48     2     3     4	 9 ;       HGA2      CG324      NG3P2       HGP2
   49     2     3     6	 9 ;       HGA2      CG324      NG3P2      CG314
   49     2     3     5	 9 ;       HGA2      CG324      NG3P2       HGP2
   49     2     3     4	 9 ;       HGA2      CG324      NG3P2       HGP2
    2     3     6     7	 9 ;      CG324      NG3P2      CG314      CG321
    2     3     6    14	 9 ;      CG324      NG3P2      CG314     CG2DC1
    2     3     6    50	 9 ;      CG324      NG3P2      CG314       HGA1
    5     3     6     7	 9 ;       HGP2      NG3P2      CG314      CG321
    5     3     6    14	 9 ;       HGP2      NG3P2      CG314     CG2DC1
    5     3     6    50	 9 ;       HGP2      NG3P2      CG314       HGA1
    4     3     6     7	 9 ;       HGP2      NG3P2      CG314      CG321
    4     3     6    14	 9 ;       HGP2      NG3P2      CG314     CG2DC1
    4     3     6    50	 9 ;       HGP2      NG3P2      CG314       HGA1
   14     6     7     8	 9 ;     CG2DC1      CG314      CG321     CG3C41
   14     6     7    51	 9 ;     CG2DC1      CG314      CG321       HGA2
   14     6     7    52	 9 ;     CG2DC1      CG314      CG321       HGA2
    3     6     7     8	 9 ;      NG3P2      CG314      CG321     CG3C41
    3     6     7    51	 9 ;      NG3P2      CG314      CG321       HGA2
    3     6     7    52	 9 ;      NG3P2      CG314      CG321       HGA2
   50     6     7     8	 9 ;       HGA1      CG314      CG321     CG3C41
   50     6     7    51	 9 ;       HGA1      CG314      CG321       HGA2
   50     6     7    52	 9 ;       HGA1      CG314      CG321       HGA2
    7     6    14    12	 9 ;      CG321      CG314     CG2DC1      CG311
    7     6    14    18	 9 ;      CG321      CG314     CG2DC1     CG2DC1
    3     6    14    12	 9 ;      NG3P2      CG314     CG2DC1      CG311
    3     6    14    18	 9 ;      NG3P2      CG314     CG2DC1     CG2DC1
   50     6    14    12	 9 ;       HGA1      CG314     CG2DC1      CG311
   50     6    14    18	 9 ;       HGA1      CG314     CG2DC1     CG2DC1
    6     7     8    11	 9 ;      CG314      CG321     CG3C41     CG3C41
    6     7     8    10	 9 ;      CG314      CG321     CG3C41     CG3C41
    6     7     8     9	 9 ;      CG314      CG321     CG3C41     OG3C61
   51     7     8    11	 9 ;       HGA2      CG321     CG3C41     CG3C41
   51     7     8    10	 9 ;       HGA2      CG321     CG3C41     CG3C41
   51     7     8     9	 9 ;       HGA2      CG321     CG3C41     OG3C61
   52     7     8    11	 9 ;       HGA2      CG321     CG3C41     CG3C41
   52     7     8    10	 9 ;       HGA2      CG321     CG3C41     CG3C41
   52     7     8     9	 9 ;       HGA2      CG321     CG3C41     OG3C61
   10     8    11    19	 9 ;     CG3C41     CG3C41     CG3C41     CG3C41
   10     8    11    55	 9 ;     CG3C41     CG3C41     CG3C41       HGA2
   10     8    11    56	 9 ;     CG3C41     CG3C41     CG3C41       HGA2
    9     8    11    19	 9 ;     OG3C61     CG3C41     CG3C41     CG3C41
    9     8    11    55	 9 ;     OG3C61     CG3C41     CG3C41       HGA2
    9     8    11    56	 9 ;     OG3C61     CG3C41     CG3C41       HGA2
    7     8    11    19	 9 ;      CG321     CG3C41     CG3C41     CG3C41
    7     8    11    55	 9 ;      CG321     CG3C41     CG3C41       HGA2
    7     8    11    56	 9 ;      CG321     CG3C41     CG3C41       HGA2
   11     8    10    19	 9 ;     CG3C41     CG3C41     CG3C41     CG3C41
   11     8    10    53	 9 ;     CG3C41     CG3C41     CG3C41       HGA2
   11     8    10    54	 9 ;     CG3C41     CG3C41     CG3C41       HGA2
    9     8    10    19	 9 ;     OG3C61     CG3C41     CG3C41     CG3C41
    9     8    10    53	 9 ;     OG3C61     CG3C41     CG3C41       HGA2
    9     8    10    54	 9 ;     OG3C61     CG3C41     CG3C41       HGA2
    7     8    10    19	 9 ;      CG321     CG3C41     CG3C41     CG3C41
    7     8    10    53	 9 ;      CG321     CG3C41     CG3C41       HGA2
    7     8    10    54	 9 ;      CG321     CG3C41     CG3C41       HGA2
   11     8     9    12	 9 ;     CG3C41     CG3C41     OG3C61      CG311
   10     8     9    12	 9 ;     CG3C41     CG3C41     OG3C61      CG311
    7     8     9    12	 9 ;      CG321     CG3C41     OG3C61      CG311
    8     9    12    13	 9 ;     CG3C41     OG3C61      CG311      NG311
    8     9    12    14	 9 ;     CG3C41     OG3C61      CG311     CG2DC1
    8     9    12    57	 9 ;     CG3C41     OG3C61      CG311       HGA1
    8    10    19    11	 9 ;     CG3C41     CG3C41     CG3C41     CG3C41
    8    10    19    60	 9 ;     CG3C41     CG3C41     CG3C41       HGA2
    8    10    19    61	 9 ;     CG3C41     CG3C41     CG3C41       HGA2
   53    10    19    11	 9 ;       HGA2     CG3C41     CG3C41     CG3C41
   53    10    19    60	 9 ;       HGA2     CG3C41     CG3C41       HGA2
   53    10    19    61	 9 ;       HGA2     CG3C41     CG3C41       HGA2
   54    10    19    11	 9 ;       HGA2     CG3C41     CG3C41     CG3C41
   54    10    19    60	 9 ;       HGA2     CG3C41     CG3C41       HGA2
   54    10    19    61	 9 ;       HGA2     CG3C41     CG3C41       HGA2
    8    11    19    10	 9 ;     CG3C41     CG3C41     CG3C41     CG3C41
    8    11    19    60	 9 ;     CG3C41     CG3C41     CG3C41       HGA2
    8    11    19    61	 9 ;     CG3C41     CG3C41     CG3C41       HGA2
   55    11    19    10	 9 ;       HGA2     CG3C41     CG3C41     CG3C41
   55    11    19    60	 9 ;       HGA2     CG3C41     CG3C41       HGA2
   55    11    19    61	 9 ;       HGA2     CG3C41     CG3C41       HGA2
   56    11    19    10	 9 ;       HGA2     CG3C41     CG3C41     CG3C41
   56    11    19    60	 9 ;       HGA2     CG3C41     CG3C41       HGA2
   56    11    19    61	 9 ;       HGA2     CG3C41     CG3C41       HGA2
    9    12    13    16	 9 ;     OG3C61      CG311      NG311     HGPAM1
    9    12    13    15	 9 ;     OG3C61      CG311      NG311     CG2D2O
   14    12    13    16	 9 ;     CG2DC1      CG311      NG311     HGPAM1
   14    12    13    15	 9 ;     CG2DC1      CG311      NG311     CG2D2O
   57    12    13    16	 9 ;       HGA1      CG311      NG311     HGPAM1
   57    12    13    15	 9 ;       HGA1      CG311      NG311     CG2D2O
    9    12    14     6	 9 ;     OG3C61      CG311     CG2DC1      CG314
    9    12    14    18	 9 ;     OG3C61      CG311     CG2DC1     CG2DC1
   13    12    14     6	 9 ;      NG311      CG311     CG2DC1      CG314
   13    12    14    18	 9 ;      NG311      CG311     CG2DC1     CG2DC1
   57    12    14     6	 9 ;       HGA1      CG311     CG2DC1      CG314
   57    12    14    18	 9 ;       HGA1      CG311     CG2DC1     CG2DC1
   16    13    15    17	 9 ;     HGPAM1      NG311     CG2D2O     CG2DC2
   16    13    15    58	 9 ;     HGPAM1      NG311     CG2D2O       HGA4
   12    13    15    17	 9 ;      CG311      NG311     CG2D2O     CG2DC2
   12    13    15    58	 9 ;      CG311      NG311     CG2D2O       HGA4
   12    14    18    17	 9 ;      CG311     CG2DC1     CG2DC1     CG2DC2
   12    14    18    59	 9 ;      CG311     CG2DC1     CG2DC1       HGA4
    6    14    18    17	 9 ;      CG314     CG2DC1     CG2DC1     CG2DC2
    6    14    18    59	 9 ;      CG314     CG2DC1     CG2DC1       HGA4
   13    15    17    18	 9 ;      NG311     CG2D2O     CG2DC2     CG2DC1
   13    15    17    20	 9 ;      NG311     CG2D2O     CG2DC2      CG321
   58    15    17    18	 9 ;       HGA4     CG2D2O     CG2DC2     CG2DC1
   58    15    17    20	 9 ;       HGA4     CG2D2O     CG2DC2      CG321
   15    17    18    14	 9 ;     CG2D2O     CG2DC2     CG2DC1     CG2DC1
   15    17    18    59	 9 ;     CG2D2O     CG2DC2     CG2DC1       HGA4
   20    17    18    14	 9 ;      CG321     CG2DC2     CG2DC1     CG2DC1
   20    17    18    59	 9 ;      CG321     CG2DC2     CG2DC1       HGA4
   15    17    20    21	 9 ;     CG2D2O     CG2DC2      CG321      CG301
   15    17    20    62	 9 ;     CG2D2O     CG2DC2      CG321       HGA2
   15    17    20    63	 9 ;     CG2D2O     CG2DC2      CG321       HGA2
   18    17    20    21	 9 ;     CG2DC1     CG2DC2      CG321      CG301
   18    17    20    62	 9 ;     CG2DC1     CG2DC2      CG321       HGA2
   18    17    20    63	 9 ;     CG2DC1     CG2DC2      CG321       HGA2
   17    20    21    22	 9 ;     CG2DC2      CG321      CG301      CG331
   17    20    21    24	 9 ;     CG2DC2      CG321      CG301      CG331
   17    20    21    23	 9 ;     CG2DC2      CG321      CG301      CG331
   62    20    21    22	 9 ;       HGA2      CG321      CG301      CG331
   62    20    21    24	 9 ;       HGA2      CG321      CG301      CG331
   62    20    21    23	 9 ;       HGA2      CG321      CG301      CG331
   63    20    21    22	 9 ;       HGA2      CG321      CG301      CG331
   63    20    21    24	 9 ;       HGA2      CG321      CG301      CG331
   63    20    21    23	 9 ;       HGA2      CG321      CG301      CG331
   20    21    22    64	 9 ;      CG321      CG301      CG331       HGA3
   20    21    22    65	 9 ;      CG321      CG301      CG331       HGA3
   20    21    22    66	 9 ;      CG321      CG301      CG331       HGA3
   24    21    22    64	 9 ;      CG331      CG301      CG331       HGA3
   24    21    22    65	 9 ;      CG331      CG301      CG331       HGA3
   24    21    22    66	 9 ;      CG331      CG301      CG331       HGA3
   23    21    22    64	 9 ;      CG331      CG301      CG331       HGA3
   23    21    22    65	 9 ;      CG331      CG301      CG331       HGA3
   23    21    22    66	 9 ;      CG331      CG301      CG331       HGA3
   20    21    24    70	 9 ;      CG321      CG301      CG331       HGA3
   20    21    24    71	 9 ;      CG321      CG301      CG331       HGA3
   20    21    24    72	 9 ;      CG321      CG301      CG331       HGA3
   22    21    24    70	 9 ;      CG331      CG301      CG331       HGA3
   22    21    24    71	 9 ;      CG331      CG301      CG331       HGA3
   22    21    24    72	 9 ;      CG331      CG301      CG331       HGA3
   23    21    24    70	 9 ;      CG331      CG301      CG331       HGA3
   23    21    24    71	 9 ;      CG331      CG301      CG331       HGA3
   23    21    24    72	 9 ;      CG331      CG301      CG331       HGA3
   20    21    23    67	 9 ;      CG321      CG301      CG331       HGA3
   20    21    23    68	 9 ;      CG321      CG301      CG331       HGA3
   20    21    23    69	 9 ;      CG321      CG301      CG331       HGA3
   22    21    23    67	 9 ;      CG331      CG301      CG331       HGA3
   22    21    23    68	 9 ;      CG331      CG301      CG331       HGA3
   22    21    23    69	 9 ;      CG331      CG301      CG331       HGA3
   24    21    23    67	 9 ;      CG331      CG301      CG331       HGA3
   24    21    23    68	 9 ;      CG331      CG301      CG331       HGA3
   24    21    23    69	 9 ;      CG331      CG301      CG331       HGA3
    1    27    28    29	 9 ;      CG311      CG311      NG2S1      CG2O1
    1    27    28    31	 9 ;      CG311      CG311      NG2S1       HGP1
   34    27    28    29	 9 ;      CG321      CG311      NG2S1      CG2O1
   34    27    28    31	 9 ;      CG321      CG311      NG2S1       HGP1
   73    27    28    29	 9 ;       HGA1      CG311      NG2S1      CG2O1
   73    27    28    31	 9 ;       HGA1      CG311      NG2S1       HGP1
    1    27    34    35	 9 ;      CG311      CG311      CG321     CG2R61
    1    27    34    79	 9 ;      CG311      CG311      CG321       HGA2
    1    27    34    80	 9 ;      CG311      CG311      CG321       HGA2
   28    27    34    35	 9 ;      NG2S1      CG311      CG321     CG2R61
   28    27    34    79	 9 ;      NG2S1      CG311      CG321       HGA2
   28    27    34    80	 9 ;      NG2S1      CG311      CG321       HGA2
   73    27    34    35	 9 ;       HGA1      CG311      CG321     CG2R61
   73    27    34    79	 9 ;       HGA1      CG311      CG321       HGA2
   73    27    34    80	 9 ;       HGA1      CG311      CG321       HGA2
   27    28    29    30	 9 ;      CG311      NG2S1      CG2O1      OG2D1
   27    28    29    32	 9 ;      CG311      NG2S1      CG2O1      CG321
   31    28    29    30	 9 ;       HGP1      NG2S1      CG2O1      OG2D1
   31    28    29    32	 9 ;       HGP1      NG2S1      CG2O1      CG321
   30    29    32    33	 9 ;      OG2D1      CG2O1      CG321      CG331
   30    29    32    74	 9 ;      OG2D1      CG2O1      CG321       HGA2
   30    29    32    75	 9 ;      OG2D1      CG2O1      CG321       HGA2
   28    29    32    33	 9 ;      NG2S1      CG2O1      CG321      CG331
   28    29    32    74	 9 ;      NG2S1      CG2O1      CG321       HGA2
   28    29    32    75	 9 ;      NG2S1      CG2O1      CG321       HGA2
   29    32    33    76	 9 ;      CG2O1      CG321      CG331       HGA3
   29    32    33    77	 9 ;      CG2O1      CG321      CG331       HGA3
   29    32    33    78	 9 ;      CG2O1      CG321      CG331       HGA3
   74    32    33    76	 9 ;       HGA2      CG321      CG331       HGA3
   74    32    33    77	 9 ;       HGA2      CG321      CG331       HGA3
   74    32    33    78	 9 ;       HGA2      CG321      CG331       HGA3
   75    32    33    76	 9 ;       HGA2      CG321      CG331       HGA3
   75    32    33    77	 9 ;       HGA2      CG321      CG331       HGA3
   75    32    33    78	 9 ;       HGA2      CG321      CG331       HGA3
   27    34    35    40	 9 ;      CG311      CG321     CG2R61     CG2R61
   27    34    35    36	 9 ;      CG311      CG321     CG2R61     CG2R61
   79    34    35    40	 9 ;       HGA2      CG321     CG2R61     CG2R61
   79    34    35    36	 9 ;       HGA2      CG321     CG2R61     CG2R61
   80    34    35    40	 9 ;       HGA2      CG321     CG2R61     CG2R61
   80    34    35    36	 9 ;       HGA2      CG321     CG2R61     CG2R61
   34    35    40    39	 9 ;      CG321     CG2R61     CG2R61     CG2R61
   34    35    40    84	 9 ;      CG321     CG2R61     CG2R61      HGR61
   36    35    40    39	 9 ;     CG2R61     CG2R61     CG2R61     CG2R61
   36    35    40    84	 9 ;     CG2R61     CG2R61     CG2R61      HGR61
   40    35    36    37	 9 ;     CG2R61     CG2R61     CG2R61     CG2R61
   40    35    36    81	 9 ;     CG2R61     CG2R61     CG2R61      HGR61
   34    35    36    37	 9 ;      CG321     CG2R61     CG2R61     CG2R61
   34    35    36    81	 9 ;      CG321     CG2R61     CG2R61      HGR61
   35    36    37    38	 9 ;     CG2R61     CG2R61     CG2R61     CG2R61
   35    36    37    41	 9 ;     CG2R61     CG2R61     CG2R61     CG3C51
   81    36    37    38	 9 ;      HGR61     CG2R61     CG2R61     CG2R61
   81    36    37    41	 9 ;      HGR61     CG2R61     CG2R61     CG3C51
   36    37    38    39	 9 ;     CG2R61     CG2R61     CG2R61     CG2R61
   36    37    38    82	 9 ;     CG2R61     CG2R61     CG2R61      HGR61
   41    37    38    39	 9 ;     CG3C51     CG2R61     CG2R61     CG2R61
   41    37    38    82	 9 ;     CG3C51     CG2R61     CG2R61      HGR61
   38    37    41    42	 9 ;     CG2R61     CG2R61     CG3C51     NG3C51
   38    37    41    46	 9 ;     CG2R61     CG2R61     CG3C51      SG311
   38    37    41    85	 9 ;     CG2R61     CG2R61     CG3C51       HGA1
   36    37    41    42	 9 ;     CG2R61     CG2R61     CG3C51     NG3C51
   36    37    41    46	 9 ;     CG2R61     CG2R61     CG3C51      SG311
   36    37    41    85	 9 ;     CG2R61     CG2R61     CG3C51       HGA1
   37    38    39    40	 9 ;     CG2R61     CG2R61     CG2R61     CG2R61
   37    38    39    83	 9 ;     CG2R61     CG2R61     CG2R61      HGR61
   82    38    39    40	 9 ;      HGR61     CG2R61     CG2R61     CG2R61
   82    38    39    83	 9 ;      HGR61     CG2R61     CG2R61      HGR61
   38    39    40    35	 9 ;     CG2R61     CG2R61     CG2R61     CG2R61
   38    39    40    84	 9 ;     CG2R61     CG2R61     CG2R61      HGR61
   83    39    40    35	 9 ;      HGR61     CG2R61     CG2R61     CG2R61
   83    39    40    84	 9 ;      HGR61     CG2R61     CG2R61      HGR61
   37    41    42    44	 9 ;     CG2R61     CG3C51     NG3C51       HGP1
   37    41    42    43	 9 ;     CG2R61     CG3C51     NG3C51     CG2R51
   46    41    42    44	 9 ;      SG311     CG3C51     NG3C51       HGP1
   46    41    42    43	 9 ;      SG311     CG3C51     NG3C51     CG2R51
   85    41    42    44	 9 ;       HGA1     CG3C51     NG3C51       HGP1
   85    41    42    43	 9 ;       HGA1     CG3C51     NG3C51     CG2R51
   37    41    46    45	 9 ;     CG2R61     CG3C51      SG311     CG2R51
   42    41    46    45	 9 ;     NG3C51     CG3C51      SG311     CG2R51
   85    41    46    45	 9 ;       HGA1     CG3C51      SG311     CG2R51
   44    42    43    45	 9 ;       HGP1     NG3C51     CG2R51     CG2R51
   44    42    43    86	 9 ;       HGP1     NG3C51     CG2R51      HGR52
   41    42    43    45	 9 ;     CG3C51     NG3C51     CG2R51     CG2R51
   41    42    43    86	 9 ;     CG3C51     NG3C51     CG2R51      HGR52
   42    43    45    46	 9 ;     NG3C51     CG2R51     CG2R51      SG311
   42    43    45    87	 9 ;     NG3C51     CG2R51     CG2R51      HGR52
   86    43    45    46	 9 ;      HGR52     CG2R51     CG2R51      SG311
   86    43    45    87	 9 ;      HGR52     CG2R51     CG2R51      HGR52
   43    45    46    41	 9 ;     CG2R51     CG2R51      SG311     CG3C51
   87    45    46    41	 9 ;      HGR52     CG2R51      SG311     CG3C51

[ dihedrals ]
;	ai	  aj	ak	  al funct			  c0			c1			  c2			c3
   15    17    13    58	 2
   29    32    28    30	 2

