GRoups of Organic Molecules in ACtion for Science
   87
    1LIG     C1    1  -1.268   0.361  -1.762
    1LIG     C2    2  -1.140   0.447  -1.772
    1LIG     N1    3  -1.169   0.594  -1.736
    1LIG     H1    4  -1.217   0.594  -1.645
    1LIG     H2    5  -1.077   0.638  -1.720
    1LIG     C3    6  -1.252   0.678  -1.833
    1LIG     C4    7  -1.211   0.631  -1.973
    1LIG     C5    8  -1.308   0.668  -2.085
    1LIG     O1    9  -1.423   0.740  -2.040
    1LIG     C6   10  -1.336   0.546  -2.179
    1LIG     C7   11  -1.238   0.732  -2.209
    1LIG     C8   12  -1.481   0.694  -1.925
    1LIG     N2   13  -1.615   0.690  -1.929
    1LIG     C9   14  -1.401   0.669  -1.815
    1LIG    C10   15  -1.678   0.665  -1.812
    1LIG    HN1   16  -1.667   0.705  -2.016
    1LIG    C11   17  -1.610   0.650  -1.692
    1LIG    C12   18  -1.470   0.652  -1.693
    1LIG    C13   19  -1.214   0.590  -2.261
    1LIG    C14   20  -1.690   0.637  -1.564
    1LIG    C15   21  -1.687   0.758  -1.466
    1LIG    C16   22  -1.720   0.889  -1.539
    1LIG    C17   23  -1.793   0.733  -1.357
    1LIG    C18   24  -1.550   0.771  -1.397
    1LIG     O2   25  -1.263   0.270  -1.873
    1LIG     H3   26  -1.315   0.308  -1.947
    1LIG    C19   27  -1.280   0.292  -1.622
    1LIG     N3   28  -1.153   0.223  -1.589
    1LIG    C20   29  -1.132   0.090  -1.622
    1LIG     O3   30  -1.213   0.027  -1.689
    1LIG     H4   31  -1.103   0.255  -1.507
    1LIG    C21   32  -1.005   0.026  -1.568
    1LIG    C22   33  -0.955  -0.096  -1.644
    1LIG    C23   34  -1.330   0.379  -1.503
    1LIG    C24   35  -1.471   0.362  -1.450
    1LIG    C25   36  -1.517   0.421  -1.332
    1LIG    C26   37  -1.640   0.387  -1.274
    1LIG    C27   38  -1.726   0.302  -1.345
    1LIG    C28   39  -1.688   0.252  -1.469
    1LIG    C29   40  -1.561   0.280  -1.520
    1LIG    C30   41  -1.664   0.427  -1.134
    1LIG     N4   42  -1.626   0.544  -1.086
    1LIG    C31   43  -1.640   0.545  -0.948
    1LIG    HN2   44  -1.591   0.622  -1.142
    1LIG    C32   45  -1.695   0.431  -0.894
    1LIG      S   46  -1.734   0.320  -1.018
    1LIG     H5   47  -1.358   0.419  -1.768
    1LIG     H6   48  -1.103   0.442  -1.872
    1LIG     H7   49  -1.068   0.408  -1.704
    1LIG     H8   50  -1.232   0.782  -1.815
    1LIG     H9   51  -1.116   0.674  -1.996
    1LIG    H10   52  -1.210   0.524  -1.968
    1LIG    H11   53  -1.327   0.450  -2.132
    1LIG    H12   54  -1.432   0.531  -2.224
    1LIG    H13   55  -1.303   0.792  -2.270
    1LIG    H14   56  -1.158   0.803  -2.198
    1LIG    H15   57  -1.477   0.600  -1.875
    1LIG    H16   58  -1.781   0.657  -1.812
    1LIG    H17   59  -1.417   0.642  -1.605
    1LIG    H18   60  -1.121   0.546  -2.230
    1LIG    H19   61  -1.205   0.569  -2.366
    1LIG    H20   62  -1.652   0.552  -1.510
    1LIG    H21   63  -1.792   0.628  -1.595
    1LIG    H22   64  -1.647   0.907  -1.615
    1LIG    H23   65  -1.720   0.970  -1.469
    1LIG    H24   66  -1.817   0.881  -1.584
    1LIG    H25   67  -1.890   0.723  -1.403
    1LIG    H26   68  -1.795   0.816  -1.289
    1LIG    H27   69  -1.770   0.643  -1.304
    1LIG    H28   70  -1.474   0.789  -1.471
    1LIG    H29   71  -1.528   0.682  -1.344
    1LIG    H30   72  -1.553   0.854  -1.329
    1LIG    H31   73  -1.359   0.221  -1.635
    1LIG    H32   74  -0.927   0.100  -1.570
    1LIG    H33   75  -1.029  -0.009  -1.470
    1LIG    H34   76  -0.929  -0.067  -1.744
    1LIG    H35   77  -1.032  -0.170  -1.647
    1LIG    H36   78  -0.869  -0.136  -1.595
    1LIG    H37   79  -1.320   0.481  -1.533
    1LIG    H38   80  -1.269   0.346  -1.421
    1LIG    H39   81  -1.458   0.493  -1.286
    1LIG    H40   82  -1.818   0.278  -1.305
    1LIG    H41   83  -1.753   0.193  -1.523
    1LIG    H42   84  -1.533   0.240  -1.611
    1LIG    H43   85  -1.713   0.432  -1.229
    1LIG    H44   86  -1.612   0.626  -0.891
    1LIG    H45   87  -1.711   0.416  -0.793
   0.00000   0.00000   0.00000
