Great Red Oystrich Makes All Chemists Sane
   54
    1LIG     O1    1  -1.582   0.736  -1.537
    1LIG     C1    2  -1.510   0.620  -1.529
    1LIG     C2    3  -1.562   0.500  -1.489
    1LIG     C3    4  -1.470   0.398  -1.449
    1LIG     C4    5  -1.333   0.402  -1.477
    1LIG     C5    6  -1.287   0.521  -1.534
    1LIG     C6    7  -1.373   0.630  -1.555
    1LIG     C7    8  -1.713   0.480  -1.474
    1LIG     N1    9  -1.800   0.465  -1.596
    1LIG     HN   10  -1.823   0.537  -1.664
    1LIG     C8   11  -1.839   0.343  -1.597
    1LIG     N2   12  -1.769   0.259  -1.520
    1LIG     C9   13  -1.657   0.212  -1.604
    1LIG    C10   14  -1.741   0.342  -1.413
    1LIG     O2   15  -1.748   0.313  -1.295
    1LIG    C11   16  -1.762   0.611  -1.413
    1LIG    C12   17  -1.724   0.728  -1.511
    1LIG    C13   18  -1.792   0.724  -1.651
    1LIG    C14   19  -1.767   0.861  -1.448
    1LIG     N3   20  -1.939   0.293  -1.674
    1LIG     H1   21  -1.995   0.366  -1.717
    1LIG     H2   22  -1.905   0.226  -1.742
    1LIG    C15   23  -1.250   0.279  -1.457
    1LIG    C16   24  -1.174   0.261  -1.340
    1LIG    C17   25  -1.082   0.156  -1.328
    1LIG    C18   26  -1.064   0.065  -1.431
    1LIG    C19   27  -1.139   0.078  -1.547
    1LIG    C20   28  -1.232   0.183  -1.559
    1LIG     O3   29  -0.966  -0.028  -1.409
    1LIG    C21   30  -0.846  -0.015  -1.485
    1LIG     HC   31  -1.509   0.313  -1.395
    1LIG    HC1   32  -1.183   0.529  -1.562
    1LIG    HC2   33  -1.332   0.723  -1.591
    1LIG    HN2   34  -1.881   0.491  -1.542
    1LIG    HC3   35  -1.909   0.362  -1.516
    1LIG    HC4   36  -1.693   0.138  -1.676
    1LIG    HC5   37  -1.614   0.296  -1.658
    1LIG    HC6   38  -1.580   0.166  -1.541
    1LIG    HC7   39  -1.870   0.607  -1.399
    1LIG    HC8   40  -1.714   0.627  -1.316
    1LIG    HC9   41  -1.798   0.825  -1.691
    1LIG   HC10   42  -1.892   0.683  -1.641
    1LIG   HC11   43  -1.732   0.662  -1.718
    1LIG   HC12   44  -1.723   0.870  -1.349
    1LIG   HC13   45  -1.734   0.944  -1.510
    1LIG   HC14   46  -1.876   0.864  -1.440
    1LIG    HN1   47  -2.000   0.242  -1.612
    1LIG   HC15   48  -1.187   0.330  -1.258
    1LIG   HC16   49  -1.026   0.146  -1.236
    1LIG   HC17   50  -1.127   0.007  -1.628
    1LIG   HC18   51  -1.291   0.190  -1.649
    1LIG   HC19   52  -0.777  -0.095  -1.458
    1LIG   HC20   53  -0.870  -0.023  -1.591
    1LIG   HC21   54  -0.800   0.081  -1.465
   0.00000   0.00000   0.00000
