GROup of MAchos and Cynical Suckers
   42
    1LIG     C1    1   2.102   3.895  -1.620
    1LIG     O5    2   2.174   3.744  -1.839
    1LIG     C3    3   2.405   3.784  -1.805
    1LIG     C4    4   2.505   3.844  -1.726
    1LIG     C5    5   2.440   3.699  -1.911
    1LIG     C6    6   2.639   3.813  -1.753
    1LIG     C7    7   2.574   3.673  -1.939
    1LIG     C8    8   2.673   3.730  -1.860
    1LIG     C9    9   2.226   3.905  -1.672
    1LIG    C10   10   2.332   4.005  -1.640
    1LIG    C11   11   2.260   3.805  -1.778
    1LIG    C12   12   2.465   3.935  -1.612
    1LIG     N1   13   2.059   3.922  -1.389
    1LIG     O4   14   2.000   4.092  -1.534
    1LIG     C2   15   2.049   3.981  -1.513
    1LIG     H3   16   2.066   3.821  -1.392
    1LIG    C13   17   1.990   3.983  -1.273
    1LIG    C15   18   2.089   4.043  -1.168
    1LIG    C16   19   2.231   4.061  -1.222
    1LIG    C17   20   2.039   4.178  -1.117
    1LIG     O2   21   1.795   3.884  -1.162
    1LIG    C14   22   1.908   3.871  -1.206
    1LIG     O3   23   1.978   3.755  -1.192
    1LIG     H2   24   1.976   3.700  -1.273
    1LIG     O1   25   2.743   3.861  -1.679
    1LIG     H1   26   2.827   3.841  -1.724
    1LIG     H4   27   2.039   3.822  -1.659
    1LIG     H5   28   2.366   3.656  -1.969
    1LIG     H6   29   2.600   3.612  -2.019
    1LIG     H7   30   2.773   3.711  -1.880
    1LIG     H8   31   2.303   4.061  -1.553
    1LIG     H9   32   2.344   4.070  -1.724
    1LIG    H10   33   2.541   4.009  -1.599
    1LIG    H11   34   2.454   3.876  -1.524
    1LIG     HA   35   1.929   4.064  -1.307
    1LIG     HB   36   2.092   3.971  -1.089
    1LIG   HG11   37   2.231   4.132  -1.302
    1LIG   HG12   38   2.268   3.967  -1.258
    1LIG   HG13   39   2.295   4.096  -1.143
    1LIG   HG21   40   2.036   4.248  -1.198
    1LIG   HG22   41   2.105   4.214  -1.041
    1LIG   HG23   42   1.941   4.167  -1.076
   0.00000   0.00000   0.00000
