GROningen MAchine for Chemical Simulation
  100
    1LIG     S1    1  -1.932   0.643  -1.606
    1LIG     C1    2  -2.009   0.469  -1.584
    1LIG     C2    3  -1.990   0.395  -1.449
    1LIG     C3    4  -1.847   0.329  -1.450
    1LIG     O1    5  -1.822   0.221  -1.398
    1LIG     N1    6  -1.753   0.405  -1.519
    1LIG     C4    7  -1.631   0.367  -1.592
    1LIG     C5    8  -1.618   0.220  -1.623
    1LIG     C6    9  -1.643   0.449  -1.725
    1LIG     O2   10  -1.732   0.425  -1.807
    1LIG     N2   11  -1.561   0.561  -1.737
    1LIG     C7   12  -1.574   0.663  -1.845
    1LIG     C8   13  -1.606   0.805  -1.793
    1LIG     S2   14  -1.470   0.894  -1.705
    1LIG     C9   15  -1.484   0.828  -1.536
    1LIG    C10   16  -1.628   0.824  -1.494
    1LIG    C11   17  -1.695   0.709  -1.475
    1LIG    C12   18  -1.843   0.694  -1.449
    1LIG     H1   19  -1.790   0.491  -1.554
    1LIG     H2   20  -1.488   0.575  -1.668
    1LIG    C13   21  -1.448   0.659  -1.938
    1LIG     O3   22  -1.437   0.786  -2.003
    1LIG     H3   23  -1.410   0.768  -2.095
    1LIG    C14   24  -1.317   0.632  -1.861
    1LIG    C15   25  -1.241   0.505  -1.902
    1LIG    C16   26  -1.144   0.522  -2.019
    1LIG    C17   27  -1.164   0.449  -1.781
    1LIG     O4   28  -1.066   0.377  -1.795
    1LIG     N3   29  -1.212   0.488  -1.659
    1LIG     H4   30  -1.305   0.529  -1.654
    1LIG    C18   31  -1.158   0.441  -1.532
    1LIG    C19   32  -1.189   0.539  -1.416
    1LIG    C20   33  -1.110   0.505  -1.288
    1LIG    C21   34  -1.163   0.686  -1.453
    1LIG    C22   35  -1.212   0.297  -1.509
    1LIG     O5   36  -1.320   0.277  -1.452
    1LIG     N4   37  -1.134   0.195  -1.558
    1LIG     H5   38  -1.047   0.217  -1.605
    1LIG    C23   39  -1.174   0.056  -1.554
    1LIG    C24   40  -1.070  -0.036  -1.490
    1LIG    C25   41  -1.002   0.027  -1.367
    1LIG    C26   42  -0.859   0.070  -1.397
    1LIG     N5   43  -2.036   0.488  -1.346
    1LIG    C27   44  -2.097   0.464  -1.227
    1LIG     O6   45  -2.154   0.554  -1.168
    1LIG     H6   46  -2.062   0.581  -1.378
    1LIG     O7   47  -2.079   0.338  -1.184
    1LIG    C28   48  -2.196   0.254  -1.165
    1LIG    C29   49  -2.294   0.266  -1.282
    1LIG    C30   50  -2.139   0.111  -1.162
    1LIG    C31   51  -2.263   0.282  -1.030
    1LIG    HC2   52  -1.967   0.405  -1.661
    1LIG    HC3   53  -2.116   0.478  -1.602
    1LIG     HC   54  -2.062   0.313  -1.449
    1LIG    HC1   55  -1.544   0.401  -1.536
    1LIG    HC4   56  -1.546   0.206  -1.704
    1LIG    HC5   57  -1.715   0.180  -1.653
    1LIG    HC6   58  -1.584   0.167  -1.534
    1LIG    HC7   59  -1.658   0.632  -1.907
    1LIG    HC8   60  -1.690   0.796  -1.724
    1LIG    HC9   61  -1.638   0.866  -1.878
    1LIG   HC10   62  -1.428   0.892  -1.468
    1LIG   HC11   63  -1.443   0.727  -1.533
    1LIG   HC12   64  -1.680   0.917  -1.478
    1LIG   HC13   65  -1.637   0.618  -1.477
    1LIG   HC14   66  -1.859   0.617  -1.373
    1LIG   HC15   67  -1.884   0.788  -1.414
    1LIG   HC16   68  -1.462   0.581  -2.013
    1LIG   HC17   69  -1.342   0.624  -1.755
    1LIG   HC18   70  -1.251   0.718  -1.874
    1LIG   HC19   71  -1.314   0.430  -1.931
    1LIG   HC20   72  -1.095   0.428  -2.040
    1LIG   HC21   73  -1.200   0.555  -2.107
    1LIG   HC22   74  -1.069   0.597  -1.993
    1LIG   HC23   75  -1.049   0.435  -1.542
    1LIG   HC24   76  -1.294   0.530  -1.393
    1LIG   HC25   77  -1.128   0.401  -1.262
    1LIG   HC26   78  -1.143   0.569  -1.207
    1LIG   HC27   79  -1.004   0.520  -1.306
    1LIG   HC28   80  -1.219   0.710  -1.544
    1LIG   HC29   81  -1.057   0.701  -1.471
    1LIG   HC30   82  -1.196   0.750  -1.372
    1LIG   HC31   83  -1.192   0.022  -1.656
    1LIG   HC32   84  -1.268   0.048  -1.498
    1LIG   HC33   85  -1.119  -0.128  -1.459
    1LIG   HC34   86  -0.993  -0.059  -1.564
    1LIG   HC35   87  -1.001  -0.045  -1.286
    1LIG   HC36   88  -1.060   0.115  -1.336
    1LIG   HC37   89  -0.815   0.114  -1.308
    1LIG   HC38   90  -0.801  -0.017  -1.428
    1LIG   HC39   91  -0.859   0.143  -1.478
    1LIG   HC40   92  -2.335   0.367  -1.285
    1LIG   HC41   93  -2.243   0.245  -1.375
    1LIG   HC42   94  -2.375   0.194  -1.269
    1LIG   HC43   95  -2.091   0.090  -1.258
    1LIG   HC44   96  -2.066   0.103  -1.082
    1LIG   HC45   97  -2.220   0.040  -1.146
    1LIG   HC46   98  -2.304   0.383  -1.031
    1LIG   HC47   99  -2.344   0.210  -1.014
    1LIG   HC48  100  -2.190   0.273  -0.950
   0.00000   0.00000   0.00000
