; Created by cgenff_charmm2gmx.py

[ moleculetype ]
; Name			   nrexcl
LIG				 3

[ atoms ]
;	 nr		  type	resnr residue  atom   cgnr	   charge		mass  typeB    chargeB		massB
; residue	 1 LIG rtp LIG q	qsum
     1      SG311      1    LIG     S1      1     -0.220     32.060   ;
     2      CG321      1    LIG     C1      2     -0.107     12.011   ;
     3      CG311      1    LIG     C2      3      0.158     12.011   ;
     4      CG2O1      1    LIG     C3      4      0.515     12.011   ;
     5      OG2D1      1    LIG     O1      5     -0.509     15.999   ;
     6      NG2S1      1    LIG     N1      6     -0.514     14.007   ;
     7      CG311      1    LIG     C4      7      0.078     12.011   ;
     8      CG331      1    LIG     C5      8     -0.270     12.011   ;
     9      CG2O1      1    LIG     C6      9      0.507     12.011   ;
    10      OG2D1      1    LIG     O2     10     -0.511     15.999   ;
    11      NG2S1      1    LIG     N2     11     -0.387     14.007   ;
    12      CG311      1    LIG     C7     12     -0.058     12.011   ;
    13      CG321      1    LIG     C8     13      0.035     12.011   ;
    14      SG311      1    LIG     S2     14     -0.246     32.060   ;
    15      CG321      1    LIG     C9     15     -0.071     12.011   ;
    16      CG2D1      1    LIG    C10     16     -0.157     12.011   ;
    17      CG2D1      1    LIG    C11     17     -0.157     12.011   ;
    18      CG321      1    LIG    C12     18     -0.071     12.011   ;
    19       HGP1      1    LIG     H1     19      0.316      1.008   ;
    20       HGP1      1    LIG     H2     20      0.269      1.008   ;
    21      CG311      1    LIG    C13     21      0.128     12.011   ;
    22      OG311      1    LIG     O3     22     -0.648     15.999   ;
    23       HGP1      1    LIG     H3     23      0.421      1.008   ;
    24      CG321      1    LIG    C14     24     -0.187     12.011   ;
    25      CG311      1    LIG    C15     25     -0.032     12.011   ;
    26      CG331      1    LIG    C16     26     -0.266     12.011   ;
    27      CG2O1      1    LIG    C17     27      0.483     12.011   ;
    28      OG2D1      1    LIG     O4     28     -0.510     15.999   ;
    29      NG2S1      1    LIG     N3     29     -0.435     14.007   ;
    30       HGP1      1    LIG     H4     30      0.269      1.008   ;
    31      CG311      1    LIG    C18     31      0.069     12.011   ;
    32      CG311      1    LIG    C19     32     -0.078     12.011   ;
    33      CG331      1    LIG    C20     33     -0.269     12.011   ;
    34      CG331      1    LIG    C21     34     -0.269     12.011   ;
    35      CG2O1      1    LIG    C22     35      0.531     12.011   ;
    36      OG2D1      1    LIG     O5     36     -0.514     15.999   ;
    37      NG2S1      1    LIG     N4     37     -0.477     14.007   ;
    38       HGP1      1    LIG     H5     38      0.305      1.008   ;
    39      CG321      1    LIG    C23     39     -0.033     12.011   ;
    40      CG321      1    LIG    C24     40     -0.184     12.011   ;
    41      CG321      1    LIG    C25     41     -0.178     12.011   ;
    42      CG331      1    LIG    C26     42     -0.270     12.011   ;
    43      NG2S1      1    LIG     N5     43     -0.325     14.007   ;
    44      CG2O6      1    LIG    C27     44      0.199     12.011   ;
    45      OG2D1      1    LIG     O6     45     -0.395     15.999   ;
    46       HGP1      1    LIG     H6     46      0.329      1.008   ;
    47      OG302      1    LIG     O7     47     -0.291     15.999   ;
    48      CG301      1    LIG    C28     48      0.283     12.011   ;
    49      CG331      1    LIG    C29     49     -0.262     12.011   ;
    50      CG331      1    LIG    C30     50     -0.262     12.011   ;
    51      CG331      1    LIG    C31     51     -0.262     12.011   ;
    52       HGA2      1    LIG    HC2     52      0.090      1.008   ;
    53       HGA2      1    LIG    HC3     53      0.090      1.008   ;
    54       HGA1      1    LIG     HC     54      0.090      1.008   ;
    55       HGA1      1    LIG    HC1     55      0.090      1.008   ;
    56       HGA3      1    LIG    HC4     56      0.090      1.008   ;
    57       HGA3      1    LIG    HC5     57      0.090      1.008   ;
    58       HGA3      1    LIG    HC6     58      0.090      1.008   ;
    59       HGA1      1    LIG    HC7     59      0.090      1.008   ;
    60       HGA2      1    LIG    HC8     60      0.090      1.008   ;
    61       HGA2      1    LIG    HC9     61      0.090      1.008   ;
    62       HGA2      1    LIG   HC10     62      0.090      1.008   ;
    63       HGA2      1    LIG   HC11     63      0.090      1.008   ;
    64       HGA4      1    LIG   HC12     64      0.150      1.008   ;
    65       HGA4      1    LIG   HC13     65      0.150      1.008   ;
    66       HGA2      1    LIG   HC14     66      0.090      1.008   ;
    67       HGA2      1    LIG   HC15     67      0.090      1.008   ;
    68       HGA1      1    LIG   HC16     68      0.090      1.008   ;
    69       HGA2      1    LIG   HC17     69      0.090      1.008   ;
    70       HGA2      1    LIG   HC18     70      0.090      1.008   ;
    71       HGA1      1    LIG   HC19     71      0.090      1.008   ;
    72       HGA3      1    LIG   HC20     72      0.090      1.008   ;
    73       HGA3      1    LIG   HC21     73      0.090      1.008   ;
    74       HGA3      1    LIG   HC22     74      0.090      1.008   ;
    75       HGA1      1    LIG   HC23     75      0.090      1.008   ;
    76       HGA1      1    LIG   HC24     76      0.090      1.008   ;
    77       HGA3      1    LIG   HC25     77      0.090      1.008   ;
    78       HGA3      1    LIG   HC26     78      0.090      1.008   ;
    79       HGA3      1    LIG   HC27     79      0.090      1.008   ;
    80       HGA3      1    LIG   HC28     80      0.090      1.008   ;
    81       HGA3      1    LIG   HC29     81      0.090      1.008   ;
    82       HGA3      1    LIG   HC30     82      0.090      1.008   ;
    83       HGA2      1    LIG   HC31     83      0.090      1.008   ;
    84       HGA2      1    LIG   HC32     84      0.090      1.008   ;
    85       HGA2      1    LIG   HC33     85      0.090      1.008   ;
    86       HGA2      1    LIG   HC34     86      0.090      1.008   ;
    87       HGA2      1    LIG   HC35     87      0.090      1.008   ;
    88       HGA2      1    LIG   HC36     88      0.090      1.008   ;
    89       HGA3      1    LIG   HC37     89      0.090      1.008   ;
    90       HGA3      1    LIG   HC38     90      0.090      1.008   ;
    91       HGA3      1    LIG   HC39     91      0.090      1.008   ;
    92       HGA3      1    LIG   HC40     92      0.090      1.008   ;
    93       HGA3      1    LIG   HC41     93      0.090      1.008   ;
    94       HGA3      1    LIG   HC42     94      0.090      1.008   ;
    95       HGA3      1    LIG   HC43     95      0.090      1.008   ;
    96       HGA3      1    LIG   HC44     96      0.090      1.008   ;
    97       HGA3      1    LIG   HC45     97      0.090      1.008   ;
    98       HGA3      1    LIG   HC46     98      0.090      1.008   ;
    99       HGA3      1    LIG   HC47     99      0.090      1.008   ;
   100       HGA3      1    LIG   HC48    100      0.090      1.008   ;

[ bonds ]
;	ai	  aj funct			  c0			c1			  c2			c3
    1    18	 1 ;       SG311      CG321
    1     2	 1 ;       SG311      CG321
    2     3	 1 ;       CG321      CG311
    2    52	 1 ;       CG321       HGA2
    2    53	 1 ;       CG321       HGA2
    3     4	 1 ;       CG311      CG2O1
    3    43	 1 ;       CG311      NG2S1
    3    54	 1 ;       CG311       HGA1
    4     6	 1 ;       CG2O1      NG2S1
    4     5	 1 ;       CG2O1      OG2D1
    6     7	 1 ;       NG2S1      CG311
    6    19	 1 ;       NG2S1       HGP1
    7     9	 1 ;       CG311      CG2O1
    7     8	 1 ;       CG311      CG331
    7    55	 1 ;       CG311       HGA1
    8    56	 1 ;       CG331       HGA3
    8    57	 1 ;       CG331       HGA3
    8    58	 1 ;       CG331       HGA3
    9    11	 1 ;       CG2O1      NG2S1
    9    10	 1 ;       CG2O1      OG2D1
   11    12	 1 ;       NG2S1      CG311
   11    20	 1 ;       NG2S1       HGP1
   12    21	 1 ;       CG311      CG311
   12    13	 1 ;       CG311      CG321
   12    59	 1 ;       CG311       HGA1
   13    14	 1 ;       CG321      SG311
   13    60	 1 ;       CG321       HGA2
   13    61	 1 ;       CG321       HGA2
   14    15	 1 ;       SG311      CG321
   15    16	 1 ;       CG321      CG2D1
   15    62	 1 ;       CG321       HGA2
   15    63	 1 ;       CG321       HGA2
   16    17	 1 ;       CG2D1      CG2D1
   16    64	 1 ;       CG2D1       HGA4
   17    18	 1 ;       CG2D1      CG321
   17    65	 1 ;       CG2D1       HGA4
   18    66	 1 ;       CG321       HGA2
   18    67	 1 ;       CG321       HGA2
   21    22	 1 ;       CG311      OG311
   21    24	 1 ;       CG311      CG321
   21    68	 1 ;       CG311       HGA1
   22    23	 1 ;       OG311       HGP1
   24    25	 1 ;       CG321      CG311
   24    69	 1 ;       CG321       HGA2
   24    70	 1 ;       CG321       HGA2
   25    26	 1 ;       CG311      CG331
   25    27	 1 ;       CG311      CG2O1
   25    71	 1 ;       CG311       HGA1
   26    72	 1 ;       CG331       HGA3
   26    73	 1 ;       CG331       HGA3
   26    74	 1 ;       CG331       HGA3
   27    28	 1 ;       CG2O1      OG2D1
   27    29	 1 ;       CG2O1      NG2S1
   29    30	 1 ;       NG2S1       HGP1
   29    31	 1 ;       NG2S1      CG311
   31    32	 1 ;       CG311      CG311
   31    35	 1 ;       CG311      CG2O1
   31    75	 1 ;       CG311       HGA1
   32    34	 1 ;       CG311      CG331
   32    33	 1 ;       CG311      CG331
   32    76	 1 ;       CG311       HGA1
   33    77	 1 ;       CG331       HGA3
   33    78	 1 ;       CG331       HGA3
   33    79	 1 ;       CG331       HGA3
   34    80	 1 ;       CG331       HGA3
   34    81	 1 ;       CG331       HGA3
   34    82	 1 ;       CG331       HGA3
   35    37	 1 ;       CG2O1      NG2S1
   35    36	 1 ;       CG2O1      OG2D1
   37    38	 1 ;       NG2S1       HGP1
   37    39	 1 ;       NG2S1      CG321
   39    40	 1 ;       CG321      CG321
   39    83	 1 ;       CG321       HGA2
   39    84	 1 ;       CG321       HGA2
   40    41	 1 ;       CG321      CG321
   40    85	 1 ;       CG321       HGA2
   40    86	 1 ;       CG321       HGA2
   41    42	 1 ;       CG321      CG331
   41    87	 1 ;       CG321       HGA2
   41    88	 1 ;       CG321       HGA2
   42    89	 1 ;       CG331       HGA3
   42    90	 1 ;       CG331       HGA3
   42    91	 1 ;       CG331       HGA3
   43    46	 1 ;       NG2S1       HGP1
   43    44	 1 ;       NG2S1      CG2O6
   44    45	 1 ;       CG2O6      OG2D1
   44    47	 1 ;       CG2O6      OG302
   47    48	 1 ;       OG302      CG301
   48    49	 1 ;       CG301      CG331
   48    50	 1 ;       CG301      CG331
   48    51	 1 ;       CG301      CG331
   49    92	 1 ;       CG331       HGA3
   49    93	 1 ;       CG331       HGA3
   49    94	 1 ;       CG331       HGA3
   50    95	 1 ;       CG331       HGA3
   50    96	 1 ;       CG331       HGA3
   50    97	 1 ;       CG331       HGA3
   51    98	 1 ;       CG331       HGA3
   51    99	 1 ;       CG331       HGA3
   51   100	 1 ;       CG331       HGA3

[ pairs ]
;	ai	  aj funct			  c0			c1			  c2			c3
    1     4	 1
    1    43	 1
    1    54	 1
    1    16	 1
    1    65	 1
    2    17	 1
    2    66	 1
    2    67	 1
    2     6	 1
    2     5	 1
    2    46	 1
    2    44	 1
    3    18	 1
    3     7	 1
    3    19	 1
    3    45	 1
    3    47	 1
    4    52	 1
    4    53	 1
    4    46	 1
    4    44	 1
    4     9	 1
    4     8	 1
    4    55	 1
    5    43	 1
    5    54	 1
    5     7	 1
    5    19	 1
    6    43	 1
    6    54	 1
    6    11	 1
    6    10	 1
    6    56	 1
    6    57	 1
    6    58	 1
    7    12	 1
    7    20	 1
    8    19	 1
    8    11	 1
    8    10	 1
    9    19	 1
    9    56	 1
    9    57	 1
    9    58	 1
    9    21	 1
    9    13	 1
    9    59	 1
   10    55	 1
   10    12	 1
   10    20	 1
   11    55	 1
   11    22	 1
   11    24	 1
   11    68	 1
   11    14	 1
   11    60	 1
   11    61	 1
   12    15	 1
   12    23	 1
   12    25	 1
   12    69	 1
   12    70	 1
   13    20	 1
   13    22	 1
   13    24	 1
   13    68	 1
   13    16	 1
   13    62	 1
   13    63	 1
   14    21	 1
   14    59	 1
   14    17	 1
   14    64	 1
   15    60	 1
   15    61	 1
   15    18	 1
   15    65	 1
   16    66	 1
   16    67	 1
   17    62	 1
   17    63	 1
   18    52	 1
   18    53	 1
   18    64	 1
   19    55	 1
   20    21	 1
   20    59	 1
   21    60	 1
   21    61	 1
   21    26	 1
   21    27	 1
   21    71	 1
   22    59	 1
   22    25	 1
   22    69	 1
   22    70	 1
   23    24	 1
   23    68	 1
   24    59	 1
   24    72	 1
   24    73	 1
   24    74	 1
   24    28	 1
   24    29	 1
   25    68	 1
   25    30	 1
   25    31	 1
   26    69	 1
   26    70	 1
   26    28	 1
   26    29	 1
   27    69	 1
   27    70	 1
   27    72	 1
   27    73	 1
   27    74	 1
   27    32	 1
   27    35	 1
   27    75	 1
   28    71	 1
   28    30	 1
   28    31	 1
   29    71	 1
   29    34	 1
   29    33	 1
   29    76	 1
   29    37	 1
   29    36	 1
   30    32	 1
   30    35	 1
   30    75	 1
   31    80	 1
   31    81	 1
   31    82	 1
   31    77	 1
   31    78	 1
   31    79	 1
   31    38	 1
   31    39	 1
   32    37	 1
   32    36	 1
   33    35	 1
   33    75	 1
   33    80	 1
   33    81	 1
   33    82	 1
   34    35	 1
   34    75	 1
   34    77	 1
   34    78	 1
   34    79	 1
   35    76	 1
   35    40	 1
   35    83	 1
   35    84	 1
   36    75	 1
   36    38	 1
   36    39	 1
   37    75	 1
   37    41	 1
   37    85	 1
   37    86	 1
   38    40	 1
   38    83	 1
   38    84	 1
   39    42	 1
   39    87	 1
   39    88	 1
   40    89	 1
   40    90	 1
   40    91	 1
   41    83	 1
   41    84	 1
   42    85	 1
   42    86	 1
   43    52	 1
   43    53	 1
   43    48	 1
   44    54	 1
   44    49	 1
   44    50	 1
   44    51	 1
   45    46	 1
   45    48	 1
   46    54	 1
   46    47	 1
   47    92	 1
   47    93	 1
   47    94	 1
   47    95	 1
   47    96	 1
   47    97	 1
   47    98	 1
   47    99	 1
   47   100	 1
   49    95	 1
   49    96	 1
   49    97	 1
   49    98	 1
   49    99	 1
   49   100	 1
   50    92	 1
   50    93	 1
   50    94	 1
   50    98	 1
   50    99	 1
   50   100	 1
   51    92	 1
   51    93	 1
   51    94	 1
   51    95	 1
   51    96	 1
   51    97	 1
   52    54	 1
   53    54	 1
   55    56	 1
   55    57	 1
   55    58	 1
   59    68	 1
   59    60	 1
   59    61	 1
   62    64	 1
   63    64	 1
   64    65	 1
   65    66	 1
   65    67	 1
   68    69	 1
   68    70	 1
   69    71	 1
   70    71	 1
   71    72	 1
   71    73	 1
   71    74	 1
   75    76	 1
   76    80	 1
   76    81	 1
   76    82	 1
   76    77	 1
   76    78	 1
   76    79	 1
   83    85	 1
   83    86	 1
   84    85	 1
   84    86	 1
   85    87	 1
   85    88	 1
   86    87	 1
   86    88	 1
   87    89	 1
   87    90	 1
   87    91	 1
   88    89	 1
   88    90	 1
   88    91	 1

[ angles ]
;	ai	  aj	ak funct			c0			  c1			c2			  c3
   18     1     2	5 ;      CG321      SG311      CG321
    1     2     3	5 ;      SG311      CG321      CG311
    1     2    52	5 ;      SG311      CG321       HGA2
    1     2    53	5 ;      SG311      CG321       HGA2
    3     2    52	5 ;      CG311      CG321       HGA2
    3     2    53	5 ;      CG311      CG321       HGA2
   52     2    53	5 ;       HGA2      CG321       HGA2
    2     3     4	5 ;      CG321      CG311      CG2O1
    2     3    43	5 ;      CG321      CG311      NG2S1
    2     3    54	5 ;      CG321      CG311       HGA1
    4     3    43	5 ;      CG2O1      CG311      NG2S1
    4     3    54	5 ;      CG2O1      CG311       HGA1
   43     3    54	5 ;      NG2S1      CG311       HGA1
    6     4     5	5 ;      NG2S1      CG2O1      OG2D1
    6     4     3	5 ;      NG2S1      CG2O1      CG311
    5     4     3	5 ;      OG2D1      CG2O1      CG311
    7     6    19	5 ;      CG311      NG2S1       HGP1
    7     6     4	5 ;      CG311      NG2S1      CG2O1
   19     6     4	5 ;       HGP1      NG2S1      CG2O1
    9     7     8	5 ;      CG2O1      CG311      CG331
    9     7     6	5 ;      CG2O1      CG311      NG2S1
    9     7    55	5 ;      CG2O1      CG311       HGA1
    8     7     6	5 ;      CG331      CG311      NG2S1
    8     7    55	5 ;      CG331      CG311       HGA1
    6     7    55	5 ;      NG2S1      CG311       HGA1
    7     8    56	5 ;      CG311      CG331       HGA3
    7     8    57	5 ;      CG311      CG331       HGA3
    7     8    58	5 ;      CG311      CG331       HGA3
   56     8    57	5 ;       HGA3      CG331       HGA3
   56     8    58	5 ;       HGA3      CG331       HGA3
   57     8    58	5 ;       HGA3      CG331       HGA3
   11     9    10	5 ;      NG2S1      CG2O1      OG2D1
   11     9     7	5 ;      NG2S1      CG2O1      CG311
   10     9     7	5 ;      OG2D1      CG2O1      CG311
   12    11    20	5 ;      CG311      NG2S1       HGP1
   12    11     9	5 ;      CG311      NG2S1      CG2O1
   20    11     9	5 ;       HGP1      NG2S1      CG2O1
   21    12    13	5 ;      CG311      CG311      CG321
   21    12    11	5 ;      CG311      CG311      NG2S1
   21    12    59	5 ;      CG311      CG311       HGA1
   13    12    11	5 ;      CG321      CG311      NG2S1
   13    12    59	5 ;      CG321      CG311       HGA1
   11    12    59	5 ;      NG2S1      CG311       HGA1
   14    13    12	5 ;      SG311      CG321      CG311
   14    13    60	5 ;      SG311      CG321       HGA2
   14    13    61	5 ;      SG311      CG321       HGA2
   12    13    60	5 ;      CG311      CG321       HGA2
   12    13    61	5 ;      CG311      CG321       HGA2
   60    13    61	5 ;       HGA2      CG321       HGA2
   13    14    15	5 ;      CG321      SG311      CG321
   14    15    16	5 ;      SG311      CG321      CG2D1
   14    15    62	5 ;      SG311      CG321       HGA2
   14    15    63	5 ;      SG311      CG321       HGA2
   16    15    62	5 ;      CG2D1      CG321       HGA2
   16    15    63	5 ;      CG2D1      CG321       HGA2
   62    15    63	5 ;       HGA2      CG321       HGA2
   15    16    17	5 ;      CG321      CG2D1      CG2D1
   15    16    64	5 ;      CG321      CG2D1       HGA4
   17    16    64	5 ;      CG2D1      CG2D1       HGA4
   16    17    18	5 ;      CG2D1      CG2D1      CG321
   16    17    65	5 ;      CG2D1      CG2D1       HGA4
   18    17    65	5 ;      CG321      CG2D1       HGA4
   17    18     1	5 ;      CG2D1      CG321      SG311
   17    18    66	5 ;      CG2D1      CG321       HGA2
   17    18    67	5 ;      CG2D1      CG321       HGA2
    1    18    66	5 ;      SG311      CG321       HGA2
    1    18    67	5 ;      SG311      CG321       HGA2
   66    18    67	5 ;       HGA2      CG321       HGA2
   22    21    24	5 ;      OG311      CG311      CG321
   22    21    12	5 ;      OG311      CG311      CG311
   22    21    68	5 ;      OG311      CG311       HGA1
   24    21    12	5 ;      CG321      CG311      CG311
   24    21    68	5 ;      CG321      CG311       HGA1
   12    21    68	5 ;      CG311      CG311       HGA1
   23    22    21	5 ;       HGP1      OG311      CG311
   25    24    21	5 ;      CG311      CG321      CG311
   25    24    69	5 ;      CG311      CG321       HGA2
   25    24    70	5 ;      CG311      CG321       HGA2
   21    24    69	5 ;      CG311      CG321       HGA2
   21    24    70	5 ;      CG311      CG321       HGA2
   69    24    70	5 ;       HGA2      CG321       HGA2
   26    25    24	5 ;      CG331      CG311      CG321
   26    25    27	5 ;      CG331      CG311      CG2O1
   26    25    71	5 ;      CG331      CG311       HGA1
   24    25    27	5 ;      CG321      CG311      CG2O1
   24    25    71	5 ;      CG321      CG311       HGA1
   27    25    71	5 ;      CG2O1      CG311       HGA1
   25    26    72	5 ;      CG311      CG331       HGA3
   25    26    73	5 ;      CG311      CG331       HGA3
   25    26    74	5 ;      CG311      CG331       HGA3
   72    26    73	5 ;       HGA3      CG331       HGA3
   72    26    74	5 ;       HGA3      CG331       HGA3
   73    26    74	5 ;       HGA3      CG331       HGA3
   25    27    28	5 ;      CG311      CG2O1      OG2D1
   25    27    29	5 ;      CG311      CG2O1      NG2S1
   28    27    29	5 ;      OG2D1      CG2O1      NG2S1
   27    29    30	5 ;      CG2O1      NG2S1       HGP1
   27    29    31	5 ;      CG2O1      NG2S1      CG311
   30    29    31	5 ;       HGP1      NG2S1      CG311
   29    31    32	5 ;      NG2S1      CG311      CG311
   29    31    35	5 ;      NG2S1      CG311      CG2O1
   29    31    75	5 ;      NG2S1      CG311       HGA1
   32    31    35	5 ;      CG311      CG311      CG2O1
   32    31    75	5 ;      CG311      CG311       HGA1
   35    31    75	5 ;      CG2O1      CG311       HGA1
   34    32    31	5 ;      CG331      CG311      CG311
   34    32    33	5 ;      CG331      CG311      CG331
   34    32    76	5 ;      CG331      CG311       HGA1
   31    32    33	5 ;      CG311      CG311      CG331
   31    32    76	5 ;      CG311      CG311       HGA1
   33    32    76	5 ;      CG331      CG311       HGA1
   32    33    77	5 ;      CG311      CG331       HGA3
   32    33    78	5 ;      CG311      CG331       HGA3
   32    33    79	5 ;      CG311      CG331       HGA3
   77    33    78	5 ;       HGA3      CG331       HGA3
   77    33    79	5 ;       HGA3      CG331       HGA3
   78    33    79	5 ;       HGA3      CG331       HGA3
   32    34    80	5 ;      CG311      CG331       HGA3
   32    34    81	5 ;      CG311      CG331       HGA3
   32    34    82	5 ;      CG311      CG331       HGA3
   80    34    81	5 ;       HGA3      CG331       HGA3
   80    34    82	5 ;       HGA3      CG331       HGA3
   81    34    82	5 ;       HGA3      CG331       HGA3
   31    35    37	5 ;      CG311      CG2O1      NG2S1
   31    35    36	5 ;      CG311      CG2O1      OG2D1
   37    35    36	5 ;      NG2S1      CG2O1      OG2D1
   38    37    35	5 ;       HGP1      NG2S1      CG2O1
   38    37    39	5 ;       HGP1      NG2S1      CG321
   35    37    39	5 ;      CG2O1      NG2S1      CG321
   37    39    40	5 ;      NG2S1      CG321      CG321
   37    39    83	5 ;      NG2S1      CG321       HGA2
   37    39    84	5 ;      NG2S1      CG321       HGA2
   40    39    83	5 ;      CG321      CG321       HGA2
   40    39    84	5 ;      CG321      CG321       HGA2
   83    39    84	5 ;       HGA2      CG321       HGA2
   39    40    41	5 ;      CG321      CG321      CG321
   39    40    85	5 ;      CG321      CG321       HGA2
   39    40    86	5 ;      CG321      CG321       HGA2
   41    40    85	5 ;      CG321      CG321       HGA2
   41    40    86	5 ;      CG321      CG321       HGA2
   85    40    86	5 ;       HGA2      CG321       HGA2
   42    41    40	5 ;      CG331      CG321      CG321
   42    41    87	5 ;      CG331      CG321       HGA2
   42    41    88	5 ;      CG331      CG321       HGA2
   40    41    87	5 ;      CG321      CG321       HGA2
   40    41    88	5 ;      CG321      CG321       HGA2
   87    41    88	5 ;       HGA2      CG321       HGA2
   41    42    89	5 ;      CG321      CG331       HGA3
   41    42    90	5 ;      CG321      CG331       HGA3
   41    42    91	5 ;      CG321      CG331       HGA3
   89    42    90	5 ;       HGA3      CG331       HGA3
   89    42    91	5 ;       HGA3      CG331       HGA3
   90    42    91	5 ;       HGA3      CG331       HGA3
    3    43    46	5 ;      CG311      NG2S1       HGP1
    3    43    44	5 ;      CG311      NG2S1      CG2O6
   46    43    44	5 ;       HGP1      NG2S1      CG2O6
   43    44    45	5 ;      NG2S1      CG2O6      OG2D1
   43    44    47	5 ;      NG2S1      CG2O6      OG302
   45    44    47	5 ;      OG2D1      CG2O6      OG302
   44    47    48	5 ;      CG2O6      OG302      CG301
   47    48    49	5 ;      OG302      CG301      CG331
   47    48    50	5 ;      OG302      CG301      CG331
   47    48    51	5 ;      OG302      CG301      CG331
   49    48    50	5 ;      CG331      CG301      CG331
   49    48    51	5 ;      CG331      CG301      CG331
   50    48    51	5 ;      CG331      CG301      CG331
   48    49    92	5 ;      CG301      CG331       HGA3
   48    49    93	5 ;      CG301      CG331       HGA3
   48    49    94	5 ;      CG301      CG331       HGA3
   92    49    93	5 ;       HGA3      CG331       HGA3
   92    49    94	5 ;       HGA3      CG331       HGA3
   93    49    94	5 ;       HGA3      CG331       HGA3
   48    50    95	5 ;      CG301      CG331       HGA3
   48    50    96	5 ;      CG301      CG331       HGA3
   48    50    97	5 ;      CG301      CG331       HGA3
   95    50    96	5 ;       HGA3      CG331       HGA3
   95    50    97	5 ;       HGA3      CG331       HGA3
   96    50    97	5 ;       HGA3      CG331       HGA3
   48    51    98	5 ;      CG301      CG331       HGA3
   48    51    99	5 ;      CG301      CG331       HGA3
   48    51   100	5 ;      CG301      CG331       HGA3
   98    51    99	5 ;       HGA3      CG331       HGA3
   98    51   100	5 ;       HGA3      CG331       HGA3
   99    51   100	5 ;       HGA3      CG331       HGA3

[ dihedrals ]
;	ai	  aj	ak	  al funct			  c0			c1			  c2			c3			  c4			c5
    2     1    18    17	 9 ;      CG321      SG311      CG321      CG2D1
    2     1    18    66	 9 ;      CG321      SG311      CG321       HGA2
    2     1    18    67	 9 ;      CG321      SG311      CG321       HGA2
   18     1     2     3	 9 ;      CG321      SG311      CG321      CG311
   18     1     2    52	 9 ;      CG321      SG311      CG321       HGA2
   18     1     2    53	 9 ;      CG321      SG311      CG321       HGA2
    1     2     3     4	 9 ;      SG311      CG321      CG311      CG2O1
    1     2     3    43	 9 ;      SG311      CG321      CG311      NG2S1
    1     2     3    54	 9 ;      SG311      CG321      CG311       HGA1
   52     2     3     4	 9 ;       HGA2      CG321      CG311      CG2O1
   52     2     3    43	 9 ;       HGA2      CG321      CG311      NG2S1
   52     2     3    54	 9 ;       HGA2      CG321      CG311       HGA1
   53     2     3     4	 9 ;       HGA2      CG321      CG311      CG2O1
   53     2     3    43	 9 ;       HGA2      CG321      CG311      NG2S1
   53     2     3    54	 9 ;       HGA2      CG321      CG311       HGA1
    2     3     4     6	 9 ;      CG321      CG311      CG2O1      NG2S1
    2     3     4     5	 9 ;      CG321      CG311      CG2O1      OG2D1
   43     3     4     6	 9 ;      NG2S1      CG311      CG2O1      NG2S1
   43     3     4     5	 9 ;      NG2S1      CG311      CG2O1      OG2D1
   54     3     4     6	 9 ;       HGA1      CG311      CG2O1      NG2S1
   54     3     4     5	 9 ;       HGA1      CG311      CG2O1      OG2D1
    2     3    43    46	 9 ;      CG321      CG311      NG2S1       HGP1
    2     3    43    44	 9 ;      CG321      CG311      NG2S1      CG2O6
    4     3    43    46	 9 ;      CG2O1      CG311      NG2S1       HGP1
    4     3    43    44	 9 ;      CG2O1      CG311      NG2S1      CG2O6
   54     3    43    46	 9 ;       HGA1      CG311      NG2S1       HGP1
   54     3    43    44	 9 ;       HGA1      CG311      NG2S1      CG2O6
    5     4     6     7	 9 ;      OG2D1      CG2O1      NG2S1      CG311
    5     4     6    19	 9 ;      OG2D1      CG2O1      NG2S1       HGP1
    3     4     6     7	 9 ;      CG311      CG2O1      NG2S1      CG311
    3     4     6    19	 9 ;      CG311      CG2O1      NG2S1       HGP1
   19     6     7     9	 9 ;       HGP1      NG2S1      CG311      CG2O1
   19     6     7     8	 9 ;       HGP1      NG2S1      CG311      CG331
   19     6     7    55	 9 ;       HGP1      NG2S1      CG311       HGA1
    4     6     7     9	 9 ;      CG2O1      NG2S1      CG311      CG2O1
    4     6     7     8	 9 ;      CG2O1      NG2S1      CG311      CG331
    4     6     7    55	 9 ;      CG2O1      NG2S1      CG311       HGA1
    8     7     9    11	 9 ;      CG331      CG311      CG2O1      NG2S1
    8     7     9    10	 9 ;      CG331      CG311      CG2O1      OG2D1
    6     7     9    11	 9 ;      NG2S1      CG311      CG2O1      NG2S1
    6     7     9    10	 9 ;      NG2S1      CG311      CG2O1      OG2D1
   55     7     9    11	 9 ;       HGA1      CG311      CG2O1      NG2S1
   55     7     9    10	 9 ;       HGA1      CG311      CG2O1      OG2D1
    9     7     8    56	 9 ;      CG2O1      CG311      CG331       HGA3
    9     7     8    57	 9 ;      CG2O1      CG311      CG331       HGA3
    9     7     8    58	 9 ;      CG2O1      CG311      CG331       HGA3
    6     7     8    56	 9 ;      NG2S1      CG311      CG331       HGA3
    6     7     8    57	 9 ;      NG2S1      CG311      CG331       HGA3
    6     7     8    58	 9 ;      NG2S1      CG311      CG331       HGA3
   55     7     8    56	 9 ;       HGA1      CG311      CG331       HGA3
   55     7     8    57	 9 ;       HGA1      CG311      CG331       HGA3
   55     7     8    58	 9 ;       HGA1      CG311      CG331       HGA3
   10     9    11    12	 9 ;      OG2D1      CG2O1      NG2S1      CG311
   10     9    11    20	 9 ;      OG2D1      CG2O1      NG2S1       HGP1
    7     9    11    12	 9 ;      CG311      CG2O1      NG2S1      CG311
    7     9    11    20	 9 ;      CG311      CG2O1      NG2S1       HGP1
   20    11    12    21	 9 ;       HGP1      NG2S1      CG311      CG311
   20    11    12    13	 9 ;       HGP1      NG2S1      CG311      CG321
   20    11    12    59	 9 ;       HGP1      NG2S1      CG311       HGA1
    9    11    12    21	 9 ;      CG2O1      NG2S1      CG311      CG311
    9    11    12    13	 9 ;      CG2O1      NG2S1      CG311      CG321
    9    11    12    59	 9 ;      CG2O1      NG2S1      CG311       HGA1
   13    12    21    22	 9 ;      CG321      CG311      CG311      OG311
   13    12    21    24	 9 ;      CG321      CG311      CG311      CG321
   13    12    21    68	 9 ;      CG321      CG311      CG311       HGA1
   11    12    21    22	 9 ;      NG2S1      CG311      CG311      OG311
   11    12    21    24	 9 ;      NG2S1      CG311      CG311      CG321
   11    12    21    68	 9 ;      NG2S1      CG311      CG311       HGA1
   59    12    21    22	 9 ;       HGA1      CG311      CG311      OG311
   59    12    21    24	 9 ;       HGA1      CG311      CG311      CG321
   59    12    21    68	 9 ;       HGA1      CG311      CG311       HGA1
   21    12    13    14	 9 ;      CG311      CG311      CG321      SG311
   21    12    13    60	 9 ;      CG311      CG311      CG321       HGA2
   21    12    13    61	 9 ;      CG311      CG311      CG321       HGA2
   11    12    13    14	 9 ;      NG2S1      CG311      CG321      SG311
   11    12    13    60	 9 ;      NG2S1      CG311      CG321       HGA2
   11    12    13    61	 9 ;      NG2S1      CG311      CG321       HGA2
   59    12    13    14	 9 ;       HGA1      CG311      CG321      SG311
   59    12    13    60	 9 ;       HGA1      CG311      CG321       HGA2
   59    12    13    61	 9 ;       HGA1      CG311      CG321       HGA2
   12    13    14    15	 9 ;      CG311      CG321      SG311      CG321
   60    13    14    15	 9 ;       HGA2      CG321      SG311      CG321
   61    13    14    15	 9 ;       HGA2      CG321      SG311      CG321
   13    14    15    16	 9 ;      CG321      SG311      CG321      CG2D1
   13    14    15    62	 9 ;      CG321      SG311      CG321       HGA2
   13    14    15    63	 9 ;      CG321      SG311      CG321       HGA2
   14    15    16    17	 9 ;      SG311      CG321      CG2D1      CG2D1
   14    15    16    64	 9 ;      SG311      CG321      CG2D1       HGA4
   62    15    16    17	 9 ;       HGA2      CG321      CG2D1      CG2D1
   62    15    16    64	 9 ;       HGA2      CG321      CG2D1       HGA4
   63    15    16    17	 9 ;       HGA2      CG321      CG2D1      CG2D1
   63    15    16    64	 9 ;       HGA2      CG321      CG2D1       HGA4
   15    16    17    18	 9 ;      CG321      CG2D1      CG2D1      CG321
   15    16    17    65	 9 ;      CG321      CG2D1      CG2D1       HGA4
   64    16    17    18	 9 ;       HGA4      CG2D1      CG2D1      CG321
   64    16    17    65	 9 ;       HGA4      CG2D1      CG2D1       HGA4
   16    17    18     1	 9 ;      CG2D1      CG2D1      CG321      SG311
   16    17    18    66	 9 ;      CG2D1      CG2D1      CG321       HGA2
   16    17    18    67	 9 ;      CG2D1      CG2D1      CG321       HGA2
   65    17    18     1	 9 ;       HGA4      CG2D1      CG321      SG311
   65    17    18    66	 9 ;       HGA4      CG2D1      CG321       HGA2
   65    17    18    67	 9 ;       HGA4      CG2D1      CG321       HGA2
   24    21    22    23	 9 ;      CG321      CG311      OG311       HGP1
   12    21    22    23	 9 ;      CG311      CG311      OG311       HGP1
   68    21    22    23	 9 ;       HGA1      CG311      OG311       HGP1
   22    21    24    25	 9 ;      OG311      CG311      CG321      CG311
   22    21    24    69	 9 ;      OG311      CG311      CG321       HGA2
   22    21    24    70	 9 ;      OG311      CG311      CG321       HGA2
   12    21    24    25	 9 ;      CG311      CG311      CG321      CG311
   12    21    24    69	 9 ;      CG311      CG311      CG321       HGA2
   12    21    24    70	 9 ;      CG311      CG311      CG321       HGA2
   68    21    24    25	 9 ;       HGA1      CG311      CG321      CG311
   68    21    24    69	 9 ;       HGA1      CG311      CG321       HGA2
   68    21    24    70	 9 ;       HGA1      CG311      CG321       HGA2
   21    24    25    26	 9 ;      CG311      CG321      CG311      CG331
   21    24    25    27	 9 ;      CG311      CG321      CG311      CG2O1
   21    24    25    71	 9 ;      CG311      CG321      CG311       HGA1
   69    24    25    26	 9 ;       HGA2      CG321      CG311      CG331
   69    24    25    27	 9 ;       HGA2      CG321      CG311      CG2O1
   69    24    25    71	 9 ;       HGA2      CG321      CG311       HGA1
   70    24    25    26	 9 ;       HGA2      CG321      CG311      CG331
   70    24    25    27	 9 ;       HGA2      CG321      CG311      CG2O1
   70    24    25    71	 9 ;       HGA2      CG321      CG311       HGA1
   24    25    26    72	 9 ;      CG321      CG311      CG331       HGA3
   24    25    26    73	 9 ;      CG321      CG311      CG331       HGA3
   24    25    26    74	 9 ;      CG321      CG311      CG331       HGA3
   27    25    26    72	 9 ;      CG2O1      CG311      CG331       HGA3
   27    25    26    73	 9 ;      CG2O1      CG311      CG331       HGA3
   27    25    26    74	 9 ;      CG2O1      CG311      CG331       HGA3
   71    25    26    72	 9 ;       HGA1      CG311      CG331       HGA3
   71    25    26    73	 9 ;       HGA1      CG311      CG331       HGA3
   71    25    26    74	 9 ;       HGA1      CG311      CG331       HGA3
   26    25    27    28	 9 ;      CG331      CG311      CG2O1      OG2D1
   26    25    27    29	 9 ;      CG331      CG311      CG2O1      NG2S1
   24    25    27    28	 9 ;      CG321      CG311      CG2O1      OG2D1
   24    25    27    29	 9 ;      CG321      CG311      CG2O1      NG2S1
   71    25    27    28	 9 ;       HGA1      CG311      CG2O1      OG2D1
   71    25    27    29	 9 ;       HGA1      CG311      CG2O1      NG2S1
   25    27    29    30	 9 ;      CG311      CG2O1      NG2S1       HGP1
   25    27    29    31	 9 ;      CG311      CG2O1      NG2S1      CG311
   28    27    29    30	 9 ;      OG2D1      CG2O1      NG2S1       HGP1
   28    27    29    31	 9 ;      OG2D1      CG2O1      NG2S1      CG311
   27    29    31    32	 9 ;      CG2O1      NG2S1      CG311      CG311
   27    29    31    35	 9 ;      CG2O1      NG2S1      CG311      CG2O1
   27    29    31    75	 9 ;      CG2O1      NG2S1      CG311       HGA1
   30    29    31    32	 9 ;       HGP1      NG2S1      CG311      CG311
   30    29    31    35	 9 ;       HGP1      NG2S1      CG311      CG2O1
   30    29    31    75	 9 ;       HGP1      NG2S1      CG311       HGA1
   29    31    32    34	 9 ;      NG2S1      CG311      CG311      CG331
   29    31    32    33	 9 ;      NG2S1      CG311      CG311      CG331
   29    31    32    76	 9 ;      NG2S1      CG311      CG311       HGA1
   35    31    32    34	 9 ;      CG2O1      CG311      CG311      CG331
   35    31    32    33	 9 ;      CG2O1      CG311      CG311      CG331
   35    31    32    76	 9 ;      CG2O1      CG311      CG311       HGA1
   75    31    32    34	 9 ;       HGA1      CG311      CG311      CG331
   75    31    32    33	 9 ;       HGA1      CG311      CG311      CG331
   75    31    32    76	 9 ;       HGA1      CG311      CG311       HGA1
   29    31    35    37	 9 ;      NG2S1      CG311      CG2O1      NG2S1
   29    31    35    36	 9 ;      NG2S1      CG311      CG2O1      OG2D1
   32    31    35    37	 9 ;      CG311      CG311      CG2O1      NG2S1
   32    31    35    36	 9 ;      CG311      CG311      CG2O1      OG2D1
   75    31    35    37	 9 ;       HGA1      CG311      CG2O1      NG2S1
   75    31    35    36	 9 ;       HGA1      CG311      CG2O1      OG2D1
   31    32    34    80	 9 ;      CG311      CG311      CG331       HGA3
   31    32    34    81	 9 ;      CG311      CG311      CG331       HGA3
   31    32    34    82	 9 ;      CG311      CG311      CG331       HGA3
   33    32    34    80	 9 ;      CG331      CG311      CG331       HGA3
   33    32    34    81	 9 ;      CG331      CG311      CG331       HGA3
   33    32    34    82	 9 ;      CG331      CG311      CG331       HGA3
   76    32    34    80	 9 ;       HGA1      CG311      CG331       HGA3
   76    32    34    81	 9 ;       HGA1      CG311      CG331       HGA3
   76    32    34    82	 9 ;       HGA1      CG311      CG331       HGA3
   34    32    33    77	 9 ;      CG331      CG311      CG331       HGA3
   34    32    33    78	 9 ;      CG331      CG311      CG331       HGA3
   34    32    33    79	 9 ;      CG331      CG311      CG331       HGA3
   31    32    33    77	 9 ;      CG311      CG311      CG331       HGA3
   31    32    33    78	 9 ;      CG311      CG311      CG331       HGA3
   31    32    33    79	 9 ;      CG311      CG311      CG331       HGA3
   76    32    33    77	 9 ;       HGA1      CG311      CG331       HGA3
   76    32    33    78	 9 ;       HGA1      CG311      CG331       HGA3
   76    32    33    79	 9 ;       HGA1      CG311      CG331       HGA3
   31    35    37    38	 9 ;      CG311      CG2O1      NG2S1       HGP1
   31    35    37    39	 9 ;      CG311      CG2O1      NG2S1      CG321
   36    35    37    38	 9 ;      OG2D1      CG2O1      NG2S1       HGP1
   36    35    37    39	 9 ;      OG2D1      CG2O1      NG2S1      CG321
   38    37    39    40	 9 ;       HGP1      NG2S1      CG321      CG321
   38    37    39    83	 9 ;       HGP1      NG2S1      CG321       HGA2
   38    37    39    84	 9 ;       HGP1      NG2S1      CG321       HGA2
   35    37    39    40	 9 ;      CG2O1      NG2S1      CG321      CG321
   35    37    39    83	 9 ;      CG2O1      NG2S1      CG321       HGA2
   35    37    39    84	 9 ;      CG2O1      NG2S1      CG321       HGA2
   37    39    40    41	 9 ;      NG2S1      CG321      CG321      CG321
   37    39    40    85	 9 ;      NG2S1      CG321      CG321       HGA2
   37    39    40    86	 9 ;      NG2S1      CG321      CG321       HGA2
   83    39    40    41	 9 ;       HGA2      CG321      CG321      CG321
   83    39    40    85	 9 ;       HGA2      CG321      CG321       HGA2
   83    39    40    86	 9 ;       HGA2      CG321      CG321       HGA2
   84    39    40    41	 9 ;       HGA2      CG321      CG321      CG321
   84    39    40    85	 9 ;       HGA2      CG321      CG321       HGA2
   84    39    40    86	 9 ;       HGA2      CG321      CG321       HGA2
   39    40    41    42	 9 ;      CG321      CG321      CG321      CG331
   39    40    41    87	 9 ;      CG321      CG321      CG321       HGA2
   39    40    41    88	 9 ;      CG321      CG321      CG321       HGA2
   85    40    41    42	 9 ;       HGA2      CG321      CG321      CG331
   85    40    41    87	 9 ;       HGA2      CG321      CG321       HGA2
   85    40    41    88	 9 ;       HGA2      CG321      CG321       HGA2
   86    40    41    42	 9 ;       HGA2      CG321      CG321      CG331
   86    40    41    87	 9 ;       HGA2      CG321      CG321       HGA2
   86    40    41    88	 9 ;       HGA2      CG321      CG321       HGA2
   40    41    42    89	 9 ;      CG321      CG321      CG331       HGA3
   40    41    42    90	 9 ;      CG321      CG321      CG331       HGA3
   40    41    42    91	 9 ;      CG321      CG321      CG331       HGA3
   87    41    42    89	 9 ;       HGA2      CG321      CG331       HGA3
   87    41    42    90	 9 ;       HGA2      CG321      CG331       HGA3
   87    41    42    91	 9 ;       HGA2      CG321      CG331       HGA3
   88    41    42    89	 9 ;       HGA2      CG321      CG331       HGA3
   88    41    42    90	 9 ;       HGA2      CG321      CG331       HGA3
   88    41    42    91	 9 ;       HGA2      CG321      CG331       HGA3
    3    43    44    45	 9 ;      CG311      NG2S1      CG2O6      OG2D1
    3    43    44    47	 9 ;      CG311      NG2S1      CG2O6      OG302
   46    43    44    45	 9 ;       HGP1      NG2S1      CG2O6      OG2D1
   46    43    44    47	 9 ;       HGP1      NG2S1      CG2O6      OG302
   43    44    47    48	 9 ;      NG2S1      CG2O6      OG302      CG301
   45    44    47    48	 9 ;      OG2D1      CG2O6      OG302      CG301
   44    47    48    49	 9 ;      CG2O6      OG302      CG301      CG331
   44    47    48    50	 9 ;      CG2O6      OG302      CG301      CG331
   44    47    48    51	 9 ;      CG2O6      OG302      CG301      CG331
   47    48    49    92	 9 ;      OG302      CG301      CG331       HGA3
   47    48    49    93	 9 ;      OG302      CG301      CG331       HGA3
   47    48    49    94	 9 ;      OG302      CG301      CG331       HGA3
   50    48    49    92	 9 ;      CG331      CG301      CG331       HGA3
   50    48    49    93	 9 ;      CG331      CG301      CG331       HGA3
   50    48    49    94	 9 ;      CG331      CG301      CG331       HGA3
   51    48    49    92	 9 ;      CG331      CG301      CG331       HGA3
   51    48    49    93	 9 ;      CG331      CG301      CG331       HGA3
   51    48    49    94	 9 ;      CG331      CG301      CG331       HGA3
   47    48    50    95	 9 ;      OG302      CG301      CG331       HGA3
   47    48    50    96	 9 ;      OG302      CG301      CG331       HGA3
   47    48    50    97	 9 ;      OG302      CG301      CG331       HGA3
   49    48    50    95	 9 ;      CG331      CG301      CG331       HGA3
   49    48    50    96	 9 ;      CG331      CG301      CG331       HGA3
   49    48    50    97	 9 ;      CG331      CG301      CG331       HGA3
   51    48    50    95	 9 ;      CG331      CG301      CG331       HGA3
   51    48    50    96	 9 ;      CG331      CG301      CG331       HGA3
   51    48    50    97	 9 ;      CG331      CG301      CG331       HGA3
   47    48    51    98	 9 ;      OG302      CG301      CG331       HGA3
   47    48    51    99	 9 ;      OG302      CG301      CG331       HGA3
   47    48    51   100	 9 ;      OG302      CG301      CG331       HGA3
   49    48    51    98	 9 ;      CG331      CG301      CG331       HGA3
   49    48    51    99	 9 ;      CG331      CG301      CG331       HGA3
   49    48    51   100	 9 ;      CG331      CG301      CG331       HGA3
   50    48    51    98	 9 ;      CG331      CG301      CG331       HGA3
   50    48    51    99	 9 ;      CG331      CG301      CG331       HGA3
   50    48    51   100	 9 ;      CG331      CG301      CG331       HGA3

[ dihedrals ]
;	ai	  aj	ak	  al funct			  c0			c1			  c2			c3
    4     3     6     5	 2
    9     7    11    10	 2
   27    25    29    28	 2
   35    31    37    36	 2
   44    43    45    47	 2

