; Created by cgenff_charmm2gmx.py

[ moleculetype ]
; Name			   nrexcl
LIG				 3

[ atoms ]
;	 nr		  type	resnr residue  atom   cgnr	   charge		mass  typeB    chargeB		massB
; residue	 1 LIG rtp LIG q	qsum
     1      CG2O1      1    LIG     C1      1      0.302     12.011   ;
     2      OG2D1      1    LIG     O1      2     -0.463     15.999   ;
     3      NG2S1      1    LIG     N1      3     -0.226     14.007   ;
     4       HGP1      1    LIG     H1      4      0.262      1.008   ;
     5      CG311      1    LIG     C2      5      0.010     12.011   ;
     6      CG321      1    LIG     C3      6     -0.111     12.011   ;
     7     CG2R61      1    LIG     C4      7     -0.019     12.011   ;
     8     CG2R61      1    LIG     C5      8     -0.123     12.011   ;
     9     CG2R61      1    LIG     C6      9     -0.112     12.011   ;
    10     CG2R61      1    LIG     C7     10     -0.116     12.011   ;
    11     CG2R61      1    LIG     C8     11     -0.112     12.011   ;
    12     CG2R61      1    LIG     C9     12     -0.123     12.011   ;
    13      CG311      1    LIG    C10     13      0.089     12.011   ;
    14      OG311      1    LIG     O2     14     -0.625     15.999   ;
    15       HGP1      1    LIG     H2     15      0.415      1.008   ;
    16      CG324      1    LIG    C11     16      0.190     12.011   ;
    17      NG3P2      1    LIG     N2     17     -0.342     14.007   ;
    18       HGP2      1    LIG     H3     18      0.321      1.008   ;
    19       HGP2      1    LIG     H4     19      0.321      1.008   ;
    20      CG314      1    LIG    C12     20      0.157     12.011   ;
    21      CG321      1    LIG    C13     21     -0.147     12.011   ;
    22      CG321      1    LIG    C14     22      0.022     12.011   ;
    23     OG3C61      1    LIG     O3     23     -0.384     15.999   ;
    24      CG321      1    LIG    C15     24      0.022     12.011   ;
    25      CG321      1    LIG    C16     25     -0.147     12.011   ;
    26     CG2R61      1    LIG    C17     26     -0.100     12.011   ;
    27     CG2R61      1    LIG    C18     27     -0.068     12.011   ;
    28     CG2R61      1    LIG    C19     28      0.064     12.011   ;
    29     CG2R61      1    LIG    C20     29     -0.006     12.011   ;
    30     CG2R61      1    LIG    C21     30      0.122     12.011   ;
    31      CG321      1    LIG    C22     31     -0.173     12.011   ;
    32      NG301      1    LIG     N3     32     -0.292     14.007   ;
    33     CG2R61      1    LIG    C23     33     -0.060     12.011   ;
    34      SG3O2      1    LIG      S     34      0.440     32.060   ;
    35      CG331      1    LIG    C24     35     -0.055     12.011   ;
    36      OG2P1      1    LIG     O4     36     -0.374     15.999   ;
    37      OG2P1      1    LIG     O5     37     -0.374     15.999   ;
    38      CG321      1    LIG    C25     38      0.049     12.011   ;
    39      CG321      1    LIG    C26     39     -0.158     12.011   ;
    40      NG311      1    LIG     N4     40     -0.509     14.007   ;
    41     HGPAM1      1    LIG     H5     41      0.367      1.008   ;
    42      CG321      1    LIG    C27     42     -0.120     12.011   ;
    43      CG331      1    LIG    C28     43     -0.236     12.011   ;
    44       HGA1      1    LIG     HC     44      0.090      1.008   ;
    45       HGA2      1    LIG    HC2     45      0.090      1.008   ;
    46       HGA2      1    LIG    HC3     46      0.090      1.008   ;
    47      HGR61      1    LIG    HC1     47      0.116      1.008   ;
    48      HGR61      1    LIG    HC4     48      0.116      1.008   ;
    49      HGR61      1    LIG    HC5     49      0.116      1.008   ;
    50      HGR61      1    LIG    HC6     50      0.116      1.008   ;
    51      HGR61      1    LIG    HC7     51      0.116      1.008   ;
    52       HGA1      1    LIG    HC8     52      0.090      1.008   ;
    53       HGA2      1    LIG    HC9     53      0.090      1.008   ;
    54       HGA2      1    LIG   HC10     54      0.090      1.008   ;
    55       HGA1      1    LIG   HC11     55      0.090      1.008   ;
    56       HGA2      1    LIG   HC12     56      0.090      1.008   ;
    57       HGA2      1    LIG   HC13     57      0.090      1.008   ;
    58       HGA2      1    LIG   HC14     58      0.090      1.008   ;
    59       HGA2      1    LIG   HC15     59      0.090      1.008   ;
    60       HGA2      1    LIG   HC16     60      0.090      1.008   ;
    61       HGA2      1    LIG   HC17     61      0.090      1.008   ;
    62       HGA2      1    LIG   HC18     62      0.090      1.008   ;
    63       HGA2      1    LIG   HC19     63      0.090      1.008   ;
    64      HGR61      1    LIG   HC20     64      0.116      1.008   ;
    65       HGA2      1    LIG   HC21     65      0.090      1.008   ;
    66       HGA2      1    LIG   HC22     66      0.090      1.008   ;
    67      HGR61      1    LIG   HC23     67      0.116      1.008   ;
    68       HGA2      1    LIG   HC24     68      0.090      1.008   ;
    69       HGA2      1    LIG   HC25     69      0.090      1.008   ;
    70       HGA2      1    LIG   HC26     70      0.090      1.008   ;
    71       HGA2      1    LIG   HC27     71      0.090      1.008   ;
    72       HGA2      1    LIG   HC28     72      0.090      1.008   ;
    73       HGA2      1    LIG   HC29     73      0.090      1.008   ;
    74       HGA3      1    LIG   HC30     74      0.090      1.008   ;
    75       HGA3      1    LIG   HC31     75      0.090      1.008   ;
    76       HGA3      1    LIG   HC32     76      0.090      1.008   ;
    77       HGA3      1    LIG   HC33     77      0.090      1.008   ;
    78       HGA3      1    LIG   HC34     78      0.090      1.008   ;
    79       HGA3      1    LIG   HC35     79      0.090      1.008   ;

[ bonds ]
;	ai	  aj funct			  c0			c1			  c2			c3
    1     3	 1 ;       CG2O1      NG2S1
    1     2	 1 ;       CG2O1      OG2D1
    1    26	 1 ;       CG2O1     CG2R61
    3     4	 1 ;       NG2S1       HGP1
    3     5	 1 ;       NG2S1      CG311
    5    13	 1 ;       CG311      CG311
    5     6	 1 ;       CG311      CG321
    5    44	 1 ;       CG311       HGA1
    6     7	 1 ;       CG321     CG2R61
    6    45	 1 ;       CG321       HGA2
    6    46	 1 ;       CG321       HGA2
    7    12	 1 ;      CG2R61     CG2R61
    7     8	 1 ;      CG2R61     CG2R61
    8     9	 1 ;      CG2R61     CG2R61
    8    47	 1 ;      CG2R61      HGR61
    9    10	 1 ;      CG2R61     CG2R61
    9    48	 1 ;      CG2R61      HGR61
   10    11	 1 ;      CG2R61     CG2R61
   10    49	 1 ;      CG2R61      HGR61
   11    12	 1 ;      CG2R61     CG2R61
   11    50	 1 ;      CG2R61      HGR61
   12    51	 1 ;      CG2R61      HGR61
   13    14	 1 ;       CG311      OG311
   13    16	 1 ;       CG311      CG324
   13    52	 1 ;       CG311       HGA1
   14    15	 1 ;       OG311       HGP1
   16    17	 1 ;       CG324      NG3P2
   16    53	 1 ;       CG324       HGA2
   16    54	 1 ;       CG324       HGA2
   17    20	 1 ;       NG3P2      CG314
   17    18	 1 ;       NG3P2       HGP2
   17    19	 1 ;       NG3P2       HGP2
   20    21	 1 ;       CG314      CG321
   20    25	 1 ;       CG314      CG321
   20    55	 1 ;       CG314       HGA1
   21    22	 1 ;       CG321      CG321
   21    56	 1 ;       CG321       HGA2
   21    57	 1 ;       CG321       HGA2
   22    23	 1 ;       CG321     OG3C61
   22    58	 1 ;       CG321       HGA2
   22    59	 1 ;       CG321       HGA2
   23    24	 1 ;      OG3C61      CG321
   24    25	 1 ;       CG321      CG321
   24    60	 1 ;       CG321       HGA2
   24    61	 1 ;       CG321       HGA2
   25    62	 1 ;       CG321       HGA2
   25    63	 1 ;       CG321       HGA2
   26    33	 1 ;      CG2R61     CG2R61
   26    27	 1 ;      CG2R61     CG2R61
   27    28	 1 ;      CG2R61     CG2R61
   27    64	 1 ;      CG2R61      HGR61
   28    29	 1 ;      CG2R61     CG2R61
   28    40	 1 ;      CG2R61      NG311
   29    30	 1 ;      CG2R61     CG2R61
   29    31	 1 ;      CG2R61      CG321
   30    32	 1 ;      CG2R61      NG301
   30    33	 1 ;      CG2R61     CG2R61
   31    39	 1 ;       CG321      CG321
   31    65	 1 ;       CG321       HGA2
   31    66	 1 ;       CG321       HGA2
   32    35	 1 ;       NG301      CG331
   32    34	 1 ;       NG301      SG3O2
   33    67	 1 ;      CG2R61      HGR61
   34    36	 1 ;       SG3O2      OG2P1
   34    37	 1 ;       SG3O2      OG2P1
   34    38	 1 ;       SG3O2      CG321
   35    74	 1 ;       CG331       HGA3
   35    75	 1 ;       CG331       HGA3
   35    76	 1 ;       CG331       HGA3
   38    39	 1 ;       CG321      CG321
   38    68	 1 ;       CG321       HGA2
   38    69	 1 ;       CG321       HGA2
   39    70	 1 ;       CG321       HGA2
   39    71	 1 ;       CG321       HGA2
   40    41	 1 ;       NG311     HGPAM1
   40    42	 1 ;       NG311      CG321
   42    43	 1 ;       CG321      CG331
   42    72	 1 ;       CG321       HGA2
   42    73	 1 ;       CG321       HGA2
   43    77	 1 ;       CG331       HGA3
   43    78	 1 ;       CG331       HGA3
   43    79	 1 ;       CG331       HGA3

[ pairs ]
;	ai	  aj funct			  c0			c1			  c2			c3
    1    13	 1
    1     6	 1
    1    44	 1
    1    30	 1
    1    67	 1
    1    28	 1
    1    64	 1
    2     4	 1
    2     5	 1
    2    33	 1
    2    27	 1
    3    33	 1
    3    27	 1
    3    14	 1
    3    16	 1
    3    52	 1
    3     7	 1
    3    45	 1
    3    46	 1
    4    26	 1
    4    13	 1
    4     6	 1
    4    44	 1
    5    26	 1
    5    12	 1
    5     8	 1
    5    15	 1
    5    17	 1
    5    53	 1
    5    54	 1
    6    14	 1
    6    16	 1
    6    52	 1
    6    11	 1
    6    51	 1
    6     9	 1
    6    47	 1
    7    13	 1
    7    44	 1
    7    10	 1
    7    48	 1
    7    50	 1
    8    45	 1
    8    46	 1
    8    11	 1
    8    51	 1
    8    49	 1
    9    12	 1
    9    50	 1
   10    47	 1
   10    51	 1
   11    48	 1
   12    45	 1
   12    46	 1
   12    47	 1
   12    49	 1
   13    45	 1
   13    46	 1
   13    20	 1
   13    18	 1
   13    19	 1
   14    44	 1
   14    17	 1
   14    53	 1
   14    54	 1
   15    16	 1
   15    52	 1
   16    44	 1
   16    21	 1
   16    25	 1
   16    55	 1
   17    52	 1
   17    22	 1
   17    56	 1
   17    57	 1
   17    24	 1
   17    62	 1
   17    63	 1
   18    53	 1
   18    54	 1
   18    21	 1
   18    25	 1
   18    55	 1
   19    53	 1
   19    54	 1
   19    21	 1
   19    25	 1
   19    55	 1
   20    53	 1
   20    54	 1
   20    23	 1
   20    58	 1
   20    59	 1
   20    60	 1
   20    61	 1
   21    24	 1
   21    62	 1
   21    63	 1
   22    25	 1
   22    55	 1
   22    60	 1
   22    61	 1
   23    56	 1
   23    57	 1
   23    62	 1
   23    63	 1
   24    55	 1
   24    58	 1
   24    59	 1
   25    56	 1
   25    57	 1
   26    29	 1
   26    40	 1
   26    32	 1
   27    30	 1
   27    67	 1
   27    31	 1
   27    41	 1
   27    42	 1
   28    33	 1
   28    32	 1
   28    39	 1
   28    65	 1
   28    66	 1
   28    43	 1
   28    72	 1
   28    73	 1
   29    64	 1
   29    41	 1
   29    42	 1
   29    35	 1
   29    34	 1
   29    67	 1
   29    38	 1
   29    70	 1
   29    71	 1
   30    40	 1
   30    39	 1
   30    65	 1
   30    66	 1
   30    74	 1
   30    75	 1
   30    76	 1
   30    36	 1
   30    37	 1
   30    38	 1
   31    40	 1
   31    32	 1
   31    33	 1
   31    34	 1
   31    68	 1
   31    69	 1
   32    67	 1
   32    39	 1
   32    68	 1
   32    69	 1
   33    64	 1
   33    35	 1
   33    34	 1
   34    74	 1
   34    75	 1
   34    76	 1
   34    70	 1
   34    71	 1
   35    36	 1
   35    37	 1
   35    38	 1
   36    39	 1
   36    68	 1
   36    69	 1
   37    39	 1
   37    68	 1
   37    69	 1
   38    65	 1
   38    66	 1
   40    64	 1
   40    77	 1
   40    78	 1
   40    79	 1
   41    43	 1
   41    72	 1
   41    73	 1
   44    52	 1
   44    45	 1
   44    46	 1
   47    48	 1
   48    49	 1
   49    50	 1
   50    51	 1
   52    53	 1
   52    54	 1
   55    56	 1
   55    57	 1
   55    62	 1
   55    63	 1
   56    58	 1
   56    59	 1
   57    58	 1
   57    59	 1
   60    62	 1
   60    63	 1
   61    62	 1
   61    63	 1
   65    70	 1
   65    71	 1
   66    70	 1
   66    71	 1
   68    70	 1
   68    71	 1
   69    70	 1
   69    71	 1
   72    77	 1
   72    78	 1
   72    79	 1
   73    77	 1
   73    78	 1
   73    79	 1

[ angles ]
;	ai	  aj	ak funct			c0			  c1			c2			  c3
    3     1     2	5 ;      NG2S1      CG2O1      OG2D1
    3     1    26	5 ;      NG2S1      CG2O1     CG2R61
    2     1    26	5 ;      OG2D1      CG2O1     CG2R61
    4     3     5	5 ;       HGP1      NG2S1      CG311
    4     3     1	5 ;       HGP1      NG2S1      CG2O1
    5     3     1	5 ;      CG311      NG2S1      CG2O1
   13     5     3	5 ;      CG311      CG311      NG2S1
   13     5     6	5 ;      CG311      CG311      CG321
   13     5    44	5 ;      CG311      CG311       HGA1
    3     5     6	5 ;      NG2S1      CG311      CG321
    3     5    44	5 ;      NG2S1      CG311       HGA1
    6     5    44	5 ;      CG321      CG311       HGA1
    5     6     7	5 ;      CG311      CG321     CG2R61
    5     6    45	5 ;      CG311      CG321       HGA2
    5     6    46	5 ;      CG311      CG321       HGA2
    7     6    45	5 ;     CG2R61      CG321       HGA2
    7     6    46	5 ;     CG2R61      CG321       HGA2
   45     6    46	5 ;       HGA2      CG321       HGA2
   12     7     6	5 ;     CG2R61     CG2R61      CG321
   12     7     8	5 ;     CG2R61     CG2R61     CG2R61
    6     7     8	5 ;      CG321     CG2R61     CG2R61
    7     8     9	5 ;     CG2R61     CG2R61     CG2R61
    7     8    47	5 ;     CG2R61     CG2R61      HGR61
    9     8    47	5 ;     CG2R61     CG2R61      HGR61
   10     9     8	5 ;     CG2R61     CG2R61     CG2R61
   10     9    48	5 ;     CG2R61     CG2R61      HGR61
    8     9    48	5 ;     CG2R61     CG2R61      HGR61
   11    10     9	5 ;     CG2R61     CG2R61     CG2R61
   11    10    49	5 ;     CG2R61     CG2R61      HGR61
    9    10    49	5 ;     CG2R61     CG2R61      HGR61
   12    11    10	5 ;     CG2R61     CG2R61     CG2R61
   12    11    50	5 ;     CG2R61     CG2R61      HGR61
   10    11    50	5 ;     CG2R61     CG2R61      HGR61
   11    12     7	5 ;     CG2R61     CG2R61     CG2R61
   11    12    51	5 ;     CG2R61     CG2R61      HGR61
    7    12    51	5 ;     CG2R61     CG2R61      HGR61
   14    13    16	5 ;      OG311      CG311      CG324
   14    13     5	5 ;      OG311      CG311      CG311
   14    13    52	5 ;      OG311      CG311       HGA1
   16    13     5	5 ;      CG324      CG311      CG311
   16    13    52	5 ;      CG324      CG311       HGA1
    5    13    52	5 ;      CG311      CG311       HGA1
   15    14    13	5 ;       HGP1      OG311      CG311
   17    16    13	5 ;      NG3P2      CG324      CG311
   17    16    53	5 ;      NG3P2      CG324       HGA2
   17    16    54	5 ;      NG3P2      CG324       HGA2
   13    16    53	5 ;      CG311      CG324       HGA2
   13    16    54	5 ;      CG311      CG324       HGA2
   53    16    54	5 ;       HGA2      CG324       HGA2
   20    17    18	5 ;      CG314      NG3P2       HGP2
   20    17    19	5 ;      CG314      NG3P2       HGP2
   20    17    16	5 ;      CG314      NG3P2      CG324
   18    17    19	5 ;       HGP2      NG3P2       HGP2
   18    17    16	5 ;       HGP2      NG3P2      CG324
   19    17    16	5 ;       HGP2      NG3P2      CG324
   21    20    25	5 ;      CG321      CG314      CG321
   21    20    17	5 ;      CG321      CG314      NG3P2
   21    20    55	5 ;      CG321      CG314       HGA1
   25    20    17	5 ;      CG321      CG314      NG3P2
   25    20    55	5 ;      CG321      CG314       HGA1
   17    20    55	5 ;      NG3P2      CG314       HGA1
   22    21    20	5 ;      CG321      CG321      CG314
   22    21    56	5 ;      CG321      CG321       HGA2
   22    21    57	5 ;      CG321      CG321       HGA2
   20    21    56	5 ;      CG314      CG321       HGA2
   20    21    57	5 ;      CG314      CG321       HGA2
   56    21    57	5 ;       HGA2      CG321       HGA2
   23    22    21	5 ;     OG3C61      CG321      CG321
   23    22    58	5 ;     OG3C61      CG321       HGA2
   23    22    59	5 ;     OG3C61      CG321       HGA2
   21    22    58	5 ;      CG321      CG321       HGA2
   21    22    59	5 ;      CG321      CG321       HGA2
   58    22    59	5 ;       HGA2      CG321       HGA2
   22    23    24	5 ;      CG321     OG3C61      CG321
   23    24    25	5 ;     OG3C61      CG321      CG321
   23    24    60	5 ;     OG3C61      CG321       HGA2
   23    24    61	5 ;     OG3C61      CG321       HGA2
   25    24    60	5 ;      CG321      CG321       HGA2
   25    24    61	5 ;      CG321      CG321       HGA2
   60    24    61	5 ;       HGA2      CG321       HGA2
   24    25    20	5 ;      CG321      CG321      CG314
   24    25    62	5 ;      CG321      CG321       HGA2
   24    25    63	5 ;      CG321      CG321       HGA2
   20    25    62	5 ;      CG314      CG321       HGA2
   20    25    63	5 ;      CG314      CG321       HGA2
   62    25    63	5 ;       HGA2      CG321       HGA2
   33    26     1	5 ;     CG2R61     CG2R61      CG2O1
   33    26    27	5 ;     CG2R61     CG2R61     CG2R61
    1    26    27	5 ;      CG2O1     CG2R61     CG2R61
   26    27    28	5 ;     CG2R61     CG2R61     CG2R61
   26    27    64	5 ;     CG2R61     CG2R61      HGR61
   28    27    64	5 ;     CG2R61     CG2R61      HGR61
   29    28    27	5 ;     CG2R61     CG2R61     CG2R61
   29    28    40	5 ;     CG2R61     CG2R61      NG311
   27    28    40	5 ;     CG2R61     CG2R61      NG311
   30    29    31	5 ;     CG2R61     CG2R61      CG321
   30    29    28	5 ;     CG2R61     CG2R61     CG2R61
   31    29    28	5 ;      CG321     CG2R61     CG2R61
   32    30    33	5 ;      NG301     CG2R61     CG2R61
   32    30    29	5 ;      NG301     CG2R61     CG2R61
   33    30    29	5 ;     CG2R61     CG2R61     CG2R61
   29    31    39	5 ;     CG2R61      CG321      CG321
   29    31    65	5 ;     CG2R61      CG321       HGA2
   29    31    66	5 ;     CG2R61      CG321       HGA2
   39    31    65	5 ;      CG321      CG321       HGA2
   39    31    66	5 ;      CG321      CG321       HGA2
   65    31    66	5 ;       HGA2      CG321       HGA2
   35    32    34	5 ;      CG331      NG301      SG3O2
   35    32    30	5 ;      CG331      NG301     CG2R61
   34    32    30	5 ;      SG3O2      NG301     CG2R61
   30    33    26	5 ;     CG2R61     CG2R61     CG2R61
   30    33    67	5 ;     CG2R61     CG2R61      HGR61
   26    33    67	5 ;     CG2R61     CG2R61      HGR61
   36    34    32	5 ;      OG2P1      SG3O2      NG301
   36    34    37	5 ;      OG2P1      SG3O2      OG2P1
   36    34    38	5 ;      OG2P1      SG3O2      CG321
   32    34    37	5 ;      NG301      SG3O2      OG2P1
   32    34    38	5 ;      NG301      SG3O2      CG321
   37    34    38	5 ;      OG2P1      SG3O2      CG321
   32    35    74	5 ;      NG301      CG331       HGA3
   32    35    75	5 ;      NG301      CG331       HGA3
   32    35    76	5 ;      NG301      CG331       HGA3
   74    35    75	5 ;       HGA3      CG331       HGA3
   74    35    76	5 ;       HGA3      CG331       HGA3
   75    35    76	5 ;       HGA3      CG331       HGA3
   34    38    39	5 ;      SG3O2      CG321      CG321
   34    38    68	5 ;      SG3O2      CG321       HGA2
   34    38    69	5 ;      SG3O2      CG321       HGA2
   39    38    68	5 ;      CG321      CG321       HGA2
   39    38    69	5 ;      CG321      CG321       HGA2
   68    38    69	5 ;       HGA2      CG321       HGA2
   38    39    31	5 ;      CG321      CG321      CG321
   38    39    70	5 ;      CG321      CG321       HGA2
   38    39    71	5 ;      CG321      CG321       HGA2
   31    39    70	5 ;      CG321      CG321       HGA2
   31    39    71	5 ;      CG321      CG321       HGA2
   70    39    71	5 ;       HGA2      CG321       HGA2
   28    40    41	5 ;     CG2R61      NG311     HGPAM1
   28    40    42	5 ;     CG2R61      NG311      CG321
   41    40    42	5 ;     HGPAM1      NG311      CG321
   40    42    43	5 ;      NG311      CG321      CG331
   40    42    72	5 ;      NG311      CG321       HGA2
   40    42    73	5 ;      NG311      CG321       HGA2
   43    42    72	5 ;      CG331      CG321       HGA2
   43    42    73	5 ;      CG331      CG321       HGA2
   72    42    73	5 ;       HGA2      CG321       HGA2
   42    43    77	5 ;      CG321      CG331       HGA3
   42    43    78	5 ;      CG321      CG331       HGA3
   42    43    79	5 ;      CG321      CG331       HGA3
   77    43    78	5 ;       HGA3      CG331       HGA3
   77    43    79	5 ;       HGA3      CG331       HGA3
   78    43    79	5 ;       HGA3      CG331       HGA3

[ dihedrals ]
;	ai	  aj	ak	  al funct			  c0			c1			  c2			c3			  c4			c5
    2     1     3     4	 9 ;      OG2D1      CG2O1      NG2S1       HGP1
    2     1     3     5	 9 ;      OG2D1      CG2O1      NG2S1      CG311
   26     1     3     4	 9 ;     CG2R61      CG2O1      NG2S1       HGP1
   26     1     3     5	 9 ;     CG2R61      CG2O1      NG2S1      CG311
    3     1    26    33	 9 ;      NG2S1      CG2O1     CG2R61     CG2R61
    3     1    26    27	 9 ;      NG2S1      CG2O1     CG2R61     CG2R61
    2     1    26    33	 9 ;      OG2D1      CG2O1     CG2R61     CG2R61
    2     1    26    27	 9 ;      OG2D1      CG2O1     CG2R61     CG2R61
    4     3     5    13	 9 ;       HGP1      NG2S1      CG311      CG311
    4     3     5     6	 9 ;       HGP1      NG2S1      CG311      CG321
    4     3     5    44	 9 ;       HGP1      NG2S1      CG311       HGA1
    1     3     5    13	 9 ;      CG2O1      NG2S1      CG311      CG311
    1     3     5     6	 9 ;      CG2O1      NG2S1      CG311      CG321
    1     3     5    44	 9 ;      CG2O1      NG2S1      CG311       HGA1
    3     5    13    14	 9 ;      NG2S1      CG311      CG311      OG311
    3     5    13    16	 9 ;      NG2S1      CG311      CG311      CG324
    3     5    13    52	 9 ;      NG2S1      CG311      CG311       HGA1
    6     5    13    14	 9 ;      CG321      CG311      CG311      OG311
    6     5    13    16	 9 ;      CG321      CG311      CG311      CG324
    6     5    13    52	 9 ;      CG321      CG311      CG311       HGA1
   44     5    13    14	 9 ;       HGA1      CG311      CG311      OG311
   44     5    13    16	 9 ;       HGA1      CG311      CG311      CG324
   44     5    13    52	 9 ;       HGA1      CG311      CG311       HGA1
   13     5     6     7	 9 ;      CG311      CG311      CG321     CG2R61
   13     5     6    45	 9 ;      CG311      CG311      CG321       HGA2
   13     5     6    46	 9 ;      CG311      CG311      CG321       HGA2
    3     5     6     7	 9 ;      NG2S1      CG311      CG321     CG2R61
    3     5     6    45	 9 ;      NG2S1      CG311      CG321       HGA2
    3     5     6    46	 9 ;      NG2S1      CG311      CG321       HGA2
   44     5     6     7	 9 ;       HGA1      CG311      CG321     CG2R61
   44     5     6    45	 9 ;       HGA1      CG311      CG321       HGA2
   44     5     6    46	 9 ;       HGA1      CG311      CG321       HGA2
    5     6     7    12	 9 ;      CG311      CG321     CG2R61     CG2R61
    5     6     7     8	 9 ;      CG311      CG321     CG2R61     CG2R61
   45     6     7    12	 9 ;       HGA2      CG321     CG2R61     CG2R61
   45     6     7     8	 9 ;       HGA2      CG321     CG2R61     CG2R61
   46     6     7    12	 9 ;       HGA2      CG321     CG2R61     CG2R61
   46     6     7     8	 9 ;       HGA2      CG321     CG2R61     CG2R61
    6     7    12    11	 9 ;      CG321     CG2R61     CG2R61     CG2R61
    6     7    12    51	 9 ;      CG321     CG2R61     CG2R61      HGR61
    8     7    12    11	 9 ;     CG2R61     CG2R61     CG2R61     CG2R61
    8     7    12    51	 9 ;     CG2R61     CG2R61     CG2R61      HGR61
   12     7     8     9	 9 ;     CG2R61     CG2R61     CG2R61     CG2R61
   12     7     8    47	 9 ;     CG2R61     CG2R61     CG2R61      HGR61
    6     7     8     9	 9 ;      CG321     CG2R61     CG2R61     CG2R61
    6     7     8    47	 9 ;      CG321     CG2R61     CG2R61      HGR61
    7     8     9    10	 9 ;     CG2R61     CG2R61     CG2R61     CG2R61
    7     8     9    48	 9 ;     CG2R61     CG2R61     CG2R61      HGR61
   47     8     9    10	 9 ;      HGR61     CG2R61     CG2R61     CG2R61
   47     8     9    48	 9 ;      HGR61     CG2R61     CG2R61      HGR61
    8     9    10    11	 9 ;     CG2R61     CG2R61     CG2R61     CG2R61
    8     9    10    49	 9 ;     CG2R61     CG2R61     CG2R61      HGR61
   48     9    10    11	 9 ;      HGR61     CG2R61     CG2R61     CG2R61
   48     9    10    49	 9 ;      HGR61     CG2R61     CG2R61      HGR61
    9    10    11    12	 9 ;     CG2R61     CG2R61     CG2R61     CG2R61
    9    10    11    50	 9 ;     CG2R61     CG2R61     CG2R61      HGR61
   49    10    11    12	 9 ;      HGR61     CG2R61     CG2R61     CG2R61
   49    10    11    50	 9 ;      HGR61     CG2R61     CG2R61      HGR61
   10    11    12     7	 9 ;     CG2R61     CG2R61     CG2R61     CG2R61
   10    11    12    51	 9 ;     CG2R61     CG2R61     CG2R61      HGR61
   50    11    12     7	 9 ;      HGR61     CG2R61     CG2R61     CG2R61
   50    11    12    51	 9 ;      HGR61     CG2R61     CG2R61      HGR61
   16    13    14    15	 9 ;      CG324      CG311      OG311       HGP1
    5    13    14    15	 9 ;      CG311      CG311      OG311       HGP1
   52    13    14    15	 9 ;       HGA1      CG311      OG311       HGP1
   14    13    16    17	 9 ;      OG311      CG311      CG324      NG3P2
   14    13    16    53	 9 ;      OG311      CG311      CG324       HGA2
   14    13    16    54	 9 ;      OG311      CG311      CG324       HGA2
    5    13    16    17	 9 ;      CG311      CG311      CG324      NG3P2
    5    13    16    53	 9 ;      CG311      CG311      CG324       HGA2
    5    13    16    54	 9 ;      CG311      CG311      CG324       HGA2
   52    13    16    17	 9 ;       HGA1      CG311      CG324      NG3P2
   52    13    16    53	 9 ;       HGA1      CG311      CG324       HGA2
   52    13    16    54	 9 ;       HGA1      CG311      CG324       HGA2
   13    16    17    20	 9 ;      CG311      CG324      NG3P2      CG314
   13    16    17    18	 9 ;      CG311      CG324      NG3P2       HGP2
   13    16    17    19	 9 ;      CG311      CG324      NG3P2       HGP2
   53    16    17    20	 9 ;       HGA2      CG324      NG3P2      CG314
   53    16    17    18	 9 ;       HGA2      CG324      NG3P2       HGP2
   53    16    17    19	 9 ;       HGA2      CG324      NG3P2       HGP2
   54    16    17    20	 9 ;       HGA2      CG324      NG3P2      CG314
   54    16    17    18	 9 ;       HGA2      CG324      NG3P2       HGP2
   54    16    17    19	 9 ;       HGA2      CG324      NG3P2       HGP2
   18    17    20    21	 9 ;       HGP2      NG3P2      CG314      CG321
   18    17    20    25	 9 ;       HGP2      NG3P2      CG314      CG321
   18    17    20    55	 9 ;       HGP2      NG3P2      CG314       HGA1
   19    17    20    21	 9 ;       HGP2      NG3P2      CG314      CG321
   19    17    20    25	 9 ;       HGP2      NG3P2      CG314      CG321
   19    17    20    55	 9 ;       HGP2      NG3P2      CG314       HGA1
   16    17    20    21	 9 ;      CG324      NG3P2      CG314      CG321
   16    17    20    25	 9 ;      CG324      NG3P2      CG314      CG321
   16    17    20    55	 9 ;      CG324      NG3P2      CG314       HGA1
   25    20    21    22	 9 ;      CG321      CG314      CG321      CG321
   25    20    21    56	 9 ;      CG321      CG314      CG321       HGA2
   25    20    21    57	 9 ;      CG321      CG314      CG321       HGA2
   17    20    21    22	 9 ;      NG3P2      CG314      CG321      CG321
   17    20    21    56	 9 ;      NG3P2      CG314      CG321       HGA2
   17    20    21    57	 9 ;      NG3P2      CG314      CG321       HGA2
   55    20    21    22	 9 ;       HGA1      CG314      CG321      CG321
   55    20    21    56	 9 ;       HGA1      CG314      CG321       HGA2
   55    20    21    57	 9 ;       HGA1      CG314      CG321       HGA2
   21    20    25    24	 9 ;      CG321      CG314      CG321      CG321
   21    20    25    62	 9 ;      CG321      CG314      CG321       HGA2
   21    20    25    63	 9 ;      CG321      CG314      CG321       HGA2
   17    20    25    24	 9 ;      NG3P2      CG314      CG321      CG321
   17    20    25    62	 9 ;      NG3P2      CG314      CG321       HGA2
   17    20    25    63	 9 ;      NG3P2      CG314      CG321       HGA2
   55    20    25    24	 9 ;       HGA1      CG314      CG321      CG321
   55    20    25    62	 9 ;       HGA1      CG314      CG321       HGA2
   55    20    25    63	 9 ;       HGA1      CG314      CG321       HGA2
   20    21    22    23	 9 ;      CG314      CG321      CG321     OG3C61
   20    21    22    58	 9 ;      CG314      CG321      CG321       HGA2
   20    21    22    59	 9 ;      CG314      CG321      CG321       HGA2
   56    21    22    23	 9 ;       HGA2      CG321      CG321     OG3C61
   56    21    22    58	 9 ;       HGA2      CG321      CG321       HGA2
   56    21    22    59	 9 ;       HGA2      CG321      CG321       HGA2
   57    21    22    23	 9 ;       HGA2      CG321      CG321     OG3C61
   57    21    22    58	 9 ;       HGA2      CG321      CG321       HGA2
   57    21    22    59	 9 ;       HGA2      CG321      CG321       HGA2
   21    22    23    24	 9 ;      CG321      CG321     OG3C61      CG321
   58    22    23    24	 9 ;       HGA2      CG321     OG3C61      CG321
   59    22    23    24	 9 ;       HGA2      CG321     OG3C61      CG321
   22    23    24    25	 9 ;      CG321     OG3C61      CG321      CG321
   22    23    24    60	 9 ;      CG321     OG3C61      CG321       HGA2
   22    23    24    61	 9 ;      CG321     OG3C61      CG321       HGA2
   23    24    25    20	 9 ;     OG3C61      CG321      CG321      CG314
   23    24    25    62	 9 ;     OG3C61      CG321      CG321       HGA2
   23    24    25    63	 9 ;     OG3C61      CG321      CG321       HGA2
   60    24    25    20	 9 ;       HGA2      CG321      CG321      CG314
   60    24    25    62	 9 ;       HGA2      CG321      CG321       HGA2
   60    24    25    63	 9 ;       HGA2      CG321      CG321       HGA2
   61    24    25    20	 9 ;       HGA2      CG321      CG321      CG314
   61    24    25    62	 9 ;       HGA2      CG321      CG321       HGA2
   61    24    25    63	 9 ;       HGA2      CG321      CG321       HGA2
    1    26    33    30	 9 ;      CG2O1     CG2R61     CG2R61     CG2R61
    1    26    33    67	 9 ;      CG2O1     CG2R61     CG2R61      HGR61
   27    26    33    30	 9 ;     CG2R61     CG2R61     CG2R61     CG2R61
   27    26    33    67	 9 ;     CG2R61     CG2R61     CG2R61      HGR61
   33    26    27    28	 9 ;     CG2R61     CG2R61     CG2R61     CG2R61
   33    26    27    64	 9 ;     CG2R61     CG2R61     CG2R61      HGR61
    1    26    27    28	 9 ;      CG2O1     CG2R61     CG2R61     CG2R61
    1    26    27    64	 9 ;      CG2O1     CG2R61     CG2R61      HGR61
   26    27    28    29	 9 ;     CG2R61     CG2R61     CG2R61     CG2R61
   26    27    28    40	 9 ;     CG2R61     CG2R61     CG2R61      NG311
   64    27    28    29	 9 ;      HGR61     CG2R61     CG2R61     CG2R61
   64    27    28    40	 9 ;      HGR61     CG2R61     CG2R61      NG311
   27    28    29    30	 9 ;     CG2R61     CG2R61     CG2R61     CG2R61
   27    28    29    31	 9 ;     CG2R61     CG2R61     CG2R61      CG321
   40    28    29    30	 9 ;      NG311     CG2R61     CG2R61     CG2R61
   40    28    29    31	 9 ;      NG311     CG2R61     CG2R61      CG321
   29    28    40    41	 9 ;     CG2R61     CG2R61      NG311     HGPAM1
   29    28    40    42	 9 ;     CG2R61     CG2R61      NG311      CG321
   27    28    40    41	 9 ;     CG2R61     CG2R61      NG311     HGPAM1
   27    28    40    42	 9 ;     CG2R61     CG2R61      NG311      CG321
   31    29    30    32	 9 ;      CG321     CG2R61     CG2R61      NG301
   31    29    30    33	 9 ;      CG321     CG2R61     CG2R61     CG2R61
   28    29    30    32	 9 ;     CG2R61     CG2R61     CG2R61      NG301
   28    29    30    33	 9 ;     CG2R61     CG2R61     CG2R61     CG2R61
   30    29    31    39	 9 ;     CG2R61     CG2R61      CG321      CG321
   30    29    31    65	 9 ;     CG2R61     CG2R61      CG321       HGA2
   30    29    31    66	 9 ;     CG2R61     CG2R61      CG321       HGA2
   28    29    31    39	 9 ;     CG2R61     CG2R61      CG321      CG321
   28    29    31    65	 9 ;     CG2R61     CG2R61      CG321       HGA2
   28    29    31    66	 9 ;     CG2R61     CG2R61      CG321       HGA2
   33    30    32    35	 9 ;     CG2R61     CG2R61      NG301      CG331
   33    30    32    34	 9 ;     CG2R61     CG2R61      NG301      SG3O2
   29    30    32    35	 9 ;     CG2R61     CG2R61      NG301      CG331
   29    30    32    34	 9 ;     CG2R61     CG2R61      NG301      SG3O2
   32    30    33    26	 9 ;      NG301     CG2R61     CG2R61     CG2R61
   32    30    33    67	 9 ;      NG301     CG2R61     CG2R61      HGR61
   29    30    33    26	 9 ;     CG2R61     CG2R61     CG2R61     CG2R61
   29    30    33    67	 9 ;     CG2R61     CG2R61     CG2R61      HGR61
   29    31    39    38	 9 ;     CG2R61      CG321      CG321      CG321
   29    31    39    70	 9 ;     CG2R61      CG321      CG321       HGA2
   29    31    39    71	 9 ;     CG2R61      CG321      CG321       HGA2
   65    31    39    38	 9 ;       HGA2      CG321      CG321      CG321
   65    31    39    70	 9 ;       HGA2      CG321      CG321       HGA2
   65    31    39    71	 9 ;       HGA2      CG321      CG321       HGA2
   66    31    39    38	 9 ;       HGA2      CG321      CG321      CG321
   66    31    39    70	 9 ;       HGA2      CG321      CG321       HGA2
   66    31    39    71	 9 ;       HGA2      CG321      CG321       HGA2
   34    32    35    74	 9 ;      SG3O2      NG301      CG331       HGA3
   34    32    35    75	 9 ;      SG3O2      NG301      CG331       HGA3
   34    32    35    76	 9 ;      SG3O2      NG301      CG331       HGA3
   30    32    35    74	 9 ;     CG2R61      NG301      CG331       HGA3
   30    32    35    75	 9 ;     CG2R61      NG301      CG331       HGA3
   30    32    35    76	 9 ;     CG2R61      NG301      CG331       HGA3
   35    32    34    36	 9 ;      CG331      NG301      SG3O2      OG2P1
   35    32    34    37	 9 ;      CG331      NG301      SG3O2      OG2P1
   35    32    34    38	 9 ;      CG331      NG301      SG3O2      CG321
   30    32    34    36	 9 ;     CG2R61      NG301      SG3O2      OG2P1
   30    32    34    37	 9 ;     CG2R61      NG301      SG3O2      OG2P1
   30    32    34    38	 9 ;     CG2R61      NG301      SG3O2      CG321
   36    34    38    39	 9 ;      OG2P1      SG3O2      CG321      CG321
   36    34    38    68	 9 ;      OG2P1      SG3O2      CG321       HGA2
   36    34    38    69	 9 ;      OG2P1      SG3O2      CG321       HGA2
   32    34    38    39	 9 ;      NG301      SG3O2      CG321      CG321
   32    34    38    68	 9 ;      NG301      SG3O2      CG321       HGA2
   32    34    38    69	 9 ;      NG301      SG3O2      CG321       HGA2
   37    34    38    39	 9 ;      OG2P1      SG3O2      CG321      CG321
   37    34    38    68	 9 ;      OG2P1      SG3O2      CG321       HGA2
   37    34    38    69	 9 ;      OG2P1      SG3O2      CG321       HGA2
   34    38    39    31	 9 ;      SG3O2      CG321      CG321      CG321
   34    38    39    70	 9 ;      SG3O2      CG321      CG321       HGA2
   34    38    39    71	 9 ;      SG3O2      CG321      CG321       HGA2
   68    38    39    31	 9 ;       HGA2      CG321      CG321      CG321
   68    38    39    70	 9 ;       HGA2      CG321      CG321       HGA2
   68    38    39    71	 9 ;       HGA2      CG321      CG321       HGA2
   69    38    39    31	 9 ;       HGA2      CG321      CG321      CG321
   69    38    39    70	 9 ;       HGA2      CG321      CG321       HGA2
   69    38    39    71	 9 ;       HGA2      CG321      CG321       HGA2
   28    40    42    43	 9 ;     CG2R61      NG311      CG321      CG331
   28    40    42    72	 9 ;     CG2R61      NG311      CG321       HGA2
   28    40    42    73	 9 ;     CG2R61      NG311      CG321       HGA2
   41    40    42    43	 9 ;     HGPAM1      NG311      CG321      CG331
   41    40    42    72	 9 ;     HGPAM1      NG311      CG321       HGA2
   41    40    42    73	 9 ;     HGPAM1      NG311      CG321       HGA2
   40    42    43    77	 9 ;      NG311      CG321      CG331       HGA3
   40    42    43    78	 9 ;      NG311      CG321      CG331       HGA3
   40    42    43    79	 9 ;      NG311      CG321      CG331       HGA3
   72    42    43    77	 9 ;       HGA2      CG321      CG331       HGA3
   72    42    43    78	 9 ;       HGA2      CG321      CG331       HGA3
   72    42    43    79	 9 ;       HGA2      CG321      CG331       HGA3
   73    42    43    77	 9 ;       HGA2      CG321      CG331       HGA3
   73    42    43    78	 9 ;       HGA2      CG321      CG331       HGA3
   73    42    43    79	 9 ;       HGA2      CG321      CG331       HGA3

[ dihedrals ]
;	ai	  aj	ak	  al funct			  c0			c1			  c2			c3
    1    26     3     2	 2

