GROtesk MACabre and Sinister
   79
    1LIG     C1    1  -1.497   0.267  -1.505
    1LIG     O1    2  -1.547   0.161  -1.542
    1LIG     N1    3  -1.378   0.258  -1.438
    1LIG     H1    4  -1.353   0.160  -1.425
    1LIG     C2    5  -1.293   0.359  -1.373
    1LIG     C3    6  -1.266   0.322  -1.225
    1LIG     C4    7  -1.231   0.175  -1.208
    1LIG     C5    8  -1.318   0.089  -1.142
    1LIG     C6    9  -1.281  -0.044  -1.117
    1LIG     C7   10  -1.157  -0.091  -1.160
    1LIG     C8   11  -1.071  -0.007  -1.230
    1LIG     C9   12  -1.107   0.126  -1.254
    1LIG    C10   13  -1.169   0.379  -1.464
    1LIG     O2   14  -1.187   0.306  -1.587
    1LIG     H2   15  -1.242   0.228  -1.570
    1LIG    C11   16  -1.139   0.522  -1.511
    1LIG     N2   17  -1.145   0.540  -1.659
    1LIG     H3   18  -1.166   0.451  -1.706
    1LIG     H4   19  -1.224   0.603  -1.681
    1LIG    C12   20  -1.021   0.594  -1.725
    1LIG    C13   21  -0.956   0.476  -1.797
    1LIG    C14   22  -0.821   0.519  -1.851
    1LIG     O3   23  -0.740   0.564  -1.742
    1LIG    C15   24  -0.791   0.682  -1.681
    1LIG    C16   25  -0.927   0.655  -1.620
    1LIG    C17   26  -1.564   0.396  -1.534
    1LIG    C18   27  -1.655   0.458  -1.447
    1LIG    C19   28  -1.724   0.576  -1.478
    1LIG    C20   29  -1.681   0.647  -1.591
    1LIG    C21   30  -1.579   0.591  -1.671
    1LIG    C22   31  -1.730   0.786  -1.623
    1LIG     N3   32  -1.515   0.669  -1.771
    1LIG    C23   33  -1.526   0.464  -1.648
    1LIG      S   34  -1.411   0.791  -1.720
    1LIG    C24   35  -1.544   0.649  -1.913
    1LIG     O4   36  -1.330   0.830  -1.832
    1LIG     O5   37  -1.351   0.754  -1.593
    1LIG    C25   38  -1.526   0.924  -1.689
    1LIG    C26   39  -1.630   0.894  -1.581
    1LIG     N4   40  -1.819   0.626  -1.387
    1LIG     H5   41  -1.900   0.666  -1.432
    1LIG    C27   42  -1.859   0.546  -1.272
    1LIG    C28   43  -2.000   0.494  -1.295
    1LIG     HC   44  -1.349   0.453  -1.373
    1LIG    HC2   45  -1.184   0.382  -1.188
    1LIG    HC3   46  -1.355   0.344  -1.166
    1LIG    HC1   47  -1.415   0.124  -1.109
    1LIG    HC4   48  -1.348  -0.110  -1.064
    1LIG    HC5   49  -1.128  -0.193  -1.138
    1LIG    HC6   50  -0.976  -0.044  -1.265
    1LIG    HC7   51  -1.041   0.190  -1.309
    1LIG    HC8   52  -1.081   0.340  -1.413
    1LIG    HC9   53  -1.039   0.549  -1.478
    1LIG   HC10   54  -1.211   0.590  -1.465
    1LIG   HC11   55  -1.049   0.670  -1.797
    1LIG   HC12   56  -1.019   0.445  -1.880
    1LIG   HC13   57  -0.942   0.393  -1.728
    1LIG   HC14   58  -0.772   0.435  -1.900
    1LIG   HC15   59  -0.834   0.601  -1.922
    1LIG   HC16   60  -0.722   0.714  -1.602
    1LIG   HC17   61  -0.799   0.761  -1.756
    1LIG   HC18   62  -0.917   0.586  -1.537
    1LIG   HC19   63  -0.970   0.749  -1.584
    1LIG   HC20   64  -1.673   0.412  -1.352
    1LIG   HC21   65  -1.747   0.793  -1.731
    1LIG   HC22   66  -1.825   0.803  -1.571
    1LIG   HC23   67  -1.456   0.420  -1.717
    1LIG   HC24   68  -1.579   0.945  -1.782
    1LIG   HC25   69  -1.470   1.013  -1.660
    1LIG   HC26   70  -1.684   0.985  -1.559
    1LIG   HC27   71  -1.578   0.860  -1.491
    1LIG   HC28   72  -1.791   0.462  -1.260
    1LIG   HC29   73  -1.858   0.608  -1.182
    1LIG   HC30   74  -1.626   0.578  -1.923
    1LIG   HC31   75  -1.572   0.744  -1.958
    1LIG   HC32   76  -1.456   0.609  -1.963
    1LIG   HC33   77  -2.031   0.434  -1.209
    1LIG   HC34   78  -2.069   0.578  -1.307
    1LIG   HC35   79  -2.002   0.432  -1.385
   0.00000   0.00000   0.00000
