; Created by cgenff_charmm2gmx.py

[ moleculetype ]
; Name			   nrexcl
LIG				 3

[ atoms ]
;	 nr		  type	resnr residue  atom   cgnr	   charge		mass  typeB    chargeB		massB
; residue	 1 LIG rtp LIG q	qsum
     1      CG321      1    LIG     C1      1      0.192     12.011   ;
     2     NG3C51      1    LIG     N1      2     -0.675     14.007   ;
     3     CG3C51      1    LIG     C2      3      0.125     12.011   ;
     4     NG3C51      1    LIG     N2      4     -0.464     14.007   ;
     5     CG2RC0      1    LIG     C3      5      0.202     12.011   ;
     6       HGP1      1    LIG     HN      6      0.254      1.008   ;
     7     CG2R61      1    LIG     C4      7     -0.130     12.011   ;
     8     CG2RC0      1    LIG     C5      8      0.376     12.011   ;
     9     CG2R61      1    LIG     C6      9      0.001     12.011   ;
    10      CLGR1      1    LIG     CL     10     -0.200     35.453   ;
    11     CG2R61      1    LIG     C7     11     -0.178     12.011   ;
    12     CG2R61      1    LIG     C8     12     -0.335     12.011   ;
    13      NG321      1    LIG     N3     13     -0.826     14.007   ;
    14     HGPAM2      1    LIG     H1     14      0.349      1.008   ;
    15     HGPAM2      1    LIG     H2     15      0.349      1.008   ;
    16      CG321      1    LIG     C9     16     -0.191     12.011   ;
    17      CG321      1    LIG    C10     17     -0.188     12.011   ;
    18      CG2O1      1    LIG    C11     18      0.467     12.011   ;
    19      OG2D1      1    LIG     O1     19     -0.521     15.999   ;
    20      NG2S1      1    LIG     N4     20     -0.640     14.007   ;
    21       HGP1      1    LIG     H3     21      0.420      1.008   ;
    22      CG321      1    LIG    C12     22      0.042     12.011   ;
    23      CG324      1    LIG    C13     23      0.207     12.011   ;
    24      NG3P1      1    LIG     N5     24     -0.464     14.007   ;
    25      CG324      1    LIG    C14     25      0.219     12.011   ;
    26      CG321      1    LIG    C15     26     -0.028     12.011   ;
    27     OG3C61      1    LIG     O2     27     -0.320     15.999   ;
    28      CG321      1    LIG    C16     28     -0.028     12.011   ;
    29      CG324      1    LIG    C17     29      0.219     12.011   ;
    30       HGP2      1    LIG     H4     30      0.310      1.008   ;
    31       HGA2      1    LIG     H5     31      0.090      1.008   ;
    32       HGA2      1    LIG     H6     32      0.090      1.008   ;
    33       HGA1      1    LIG     H7     33      0.161      1.008   ;
    34      HGR62      1    LIG     H8     34      0.223      1.008   ;
    35      HGR62      1    LIG     H9     35      0.195      1.008   ;
    36      HGR61      1    LIG    H10     36      0.207      1.008   ;
    37       HGA2      1    LIG    H11     37      0.090      1.008   ;
    38       HGA2      1    LIG    H12     38      0.090      1.008   ;
    39       HGA2      1    LIG    H13     39      0.090      1.008   ;
    40       HGA2      1    LIG    H14     40      0.090      1.008   ;
    41       HGA2      1    LIG    H15     41      0.090      1.008   ;
    42       HGA2      1    LIG    H16     42      0.090      1.008   ;
    43       HGA2      1    LIG    H17     43      0.090      1.008   ;
    44       HGA2      1    LIG    H18     44      0.090      1.008   ;
    45       HGA2      1    LIG    H19     45      0.090      1.008   ;
    46       HGA2      1    LIG    H20     46      0.090      1.008   ;
    47       HGA2      1    LIG    H21     47      0.090      1.008   ;
    48       HGA2      1    LIG    H22     48      0.090      1.008   ;
    49       HGA2      1    LIG    H23     49      0.090      1.008   ;
    50       HGA2      1    LIG    H24     50      0.090      1.008   ;
    51       HGA2      1    LIG    H25     51      0.090      1.008   ;
    52       HGA2      1    LIG    H26     52      0.090      1.008   ;
    53        LPH      1    LIG    LP1     53      0.050      0.000   ;

[ bonds ]
;	ai	  aj funct			  c0			c1			  c2			c3
    1    16	 1 ;       CG321      CG321
    1     2	 1 ;       CG321     NG3C51
    1    31	 1 ;       CG321       HGA2
    1    32	 1 ;       CG321       HGA2
    2     3	 1 ;      NG3C51     CG3C51
    2     8	 1 ;      NG3C51     CG2RC0
    3    13	 1 ;      CG3C51      NG321
    3     4	 1 ;      CG3C51     NG3C51
    3    33	 1 ;      CG3C51       HGA1
    4     6	 1 ;      NG3C51       HGP1
    4     5	 1 ;      NG3C51     CG2RC0
    5     7	 1 ;      CG2RC0     CG2R61
    5     8	 1 ;      CG2RC0     CG2RC0
    7     9	 1 ;      CG2R61     CG2R61
    7    34	 1 ;      CG2R61      HGR62
    8    12	 1 ;      CG2RC0     CG2R61
    9    10	 1 ;      CG2R61      CLGR1
    9    11	 1 ;      CG2R61     CG2R61
   11    12	 1 ;      CG2R61     CG2R61
   11    35	 1 ;      CG2R61      HGR62
   12    36	 1 ;      CG2R61      HGR61
   13    15	 1 ;       NG321     HGPAM2
   13    14	 1 ;       NG321     HGPAM2
   16    17	 1 ;       CG321      CG321
   16    37	 1 ;       CG321       HGA2
   16    38	 1 ;       CG321       HGA2
   17    18	 1 ;       CG321      CG2O1
   17    39	 1 ;       CG321       HGA2
   17    40	 1 ;       CG321       HGA2
   18    20	 1 ;       CG2O1      NG2S1
   18    19	 1 ;       CG2O1      OG2D1
   20    22	 1 ;       NG2S1      CG321
   20    21	 1 ;       NG2S1       HGP1
   22    23	 1 ;       CG321      CG324
   22    41	 1 ;       CG321       HGA2
   22    42	 1 ;       CG321       HGA2
   23    24	 1 ;       CG324      NG3P1
   23    43	 1 ;       CG324       HGA2
   23    44	 1 ;       CG324       HGA2
   24    25	 1 ;       NG3P1      CG324
   24    29	 1 ;       NG3P1      CG324
   24    30	 1 ;       NG3P1       HGP2
   25    26	 1 ;       CG324      CG321
   25    45	 1 ;       CG324       HGA2
   25    46	 1 ;       CG324       HGA2
   26    27	 1 ;       CG321     OG3C61
   26    47	 1 ;       CG321       HGA2
   26    48	 1 ;       CG321       HGA2
   27    28	 1 ;      OG3C61      CG321
   28    29	 1 ;       CG321      CG324
   28    49	 1 ;       CG321       HGA2
   28    50	 1 ;       CG321       HGA2
   29    51	 1 ;       CG324       HGA2
   29    52	 1 ;       CG324       HGA2

[ pairs ]
;	ai	  aj funct			  c0			c1			  c2			c3
    1    13	 1
    1     4	 1
    1    33	 1
    1     5	 1
    1    12	 1
    1    18	 1
    1    39	 1
    1    40	 1
    2    17	 1
    2    37	 1
    2    38	 1
    2    15	 1
    2    14	 1
    2     6	 1
    2     7	 1
    2    11	 1
    2    36	 1
    3    16	 1
    3    31	 1
    3    32	 1
    3    12	 1
    3     7	 1
    4    15	 1
    4    14	 1
    4     9	 1
    4    34	 1
    4    12	 1
    5    13	 1
    5    33	 1
    5    10	 1
   53     5	 1
    5    11	 1
    5    36	 1
    6    13	 1
    6    33	 1
    6     7	 1
    6     8	 1
    7    12	 1
    7    35	 1
    8    16	 1
    8    31	 1
    8    32	 1
    8    13	 1
    8    33	 1
    8     9	 1
    8    34	 1
    8    35	 1
    9    36	 1
   10    34	 1
   53    34	 1
   10    12	 1
   53    12	 1
   10    35	 1
   53    35	 1
   11    34	 1
   14    33	 1
   15    33	 1
   16    20	 1
   16    19	 1
   17    31	 1
   17    32	 1
   17    22	 1
   17    21	 1
   18    37	 1
   18    38	 1
   18    23	 1
   18    41	 1
   18    42	 1
   19    39	 1
   19    40	 1
   19    22	 1
   19    21	 1
   20    39	 1
   20    40	 1
   20    24	 1
   20    43	 1
   20    44	 1
   21    23	 1
   21    41	 1
   21    42	 1
   22    25	 1
   22    29	 1
   22    30	 1
   23    26	 1
   23    45	 1
   23    46	 1
   23    28	 1
   23    51	 1
   23    52	 1
   24    41	 1
   24    42	 1
   24    27	 1
   24    47	 1
   24    48	 1
   24    49	 1
   24    50	 1
   25    43	 1
   25    44	 1
   25    28	 1
   25    51	 1
   25    52	 1
   26    29	 1
   26    30	 1
   26    49	 1
   26    50	 1
   27    45	 1
   27    46	 1
   27    51	 1
   27    52	 1
   28    30	 1
   28    47	 1
   28    48	 1
   29    43	 1
   29    44	 1
   29    45	 1
   29    46	 1
   30    43	 1
   30    44	 1
   30    45	 1
   30    46	 1
   30    51	 1
   30    52	 1
   31    37	 1
   31    38	 1
   32    37	 1
   32    38	 1
   35    36	 1
   37    39	 1
   37    40	 1
   38    39	 1
   38    40	 1
   41    43	 1
   41    44	 1
   42    43	 1
   42    44	 1
   45    47	 1
   45    48	 1
   46    47	 1
   46    48	 1
   49    51	 1
   49    52	 1
   50    51	 1
   50    52	 1

[ angles ]
;	ai	  aj	ak funct			c0			  c1			c2			  c3
   16     1     2	5 ;      CG321      CG321     NG3C51
   16     1    31	5 ;      CG321      CG321       HGA2
   16     1    32	5 ;      CG321      CG321       HGA2
    2     1    31	5 ;     NG3C51      CG321       HGA2
    2     1    32	5 ;     NG3C51      CG321       HGA2
   31     1    32	5 ;       HGA2      CG321       HGA2
    3     2     1	5 ;     CG3C51     NG3C51      CG321
    3     2     8	5 ;     CG3C51     NG3C51     CG2RC0
    1     2     8	5 ;      CG321     NG3C51     CG2RC0
   13     3     4	5 ;      NG321     CG3C51     NG3C51
   13     3     2	5 ;      NG321     CG3C51     NG3C51
   13     3    33	5 ;      NG321     CG3C51       HGA1
    4     3     2	5 ;     NG3C51     CG3C51     NG3C51
    4     3    33	5 ;     NG3C51     CG3C51       HGA1
    2     3    33	5 ;     NG3C51     CG3C51       HGA1
    6     4     3	5 ;       HGP1     NG3C51     CG3C51
    6     4     5	5 ;       HGP1     NG3C51     CG2RC0
    3     4     5	5 ;     CG3C51     NG3C51     CG2RC0
    4     5     7	5 ;     NG3C51     CG2RC0     CG2R61
    4     5     8	5 ;     NG3C51     CG2RC0     CG2RC0
    7     5     8	5 ;     CG2R61     CG2RC0     CG2RC0
    5     7     9	5 ;     CG2RC0     CG2R61     CG2R61
    5     7    34	5 ;     CG2RC0     CG2R61      HGR62
    9     7    34	5 ;     CG2R61     CG2R61      HGR62
    5     8     2	5 ;     CG2RC0     CG2RC0     NG3C51
    5     8    12	5 ;     CG2RC0     CG2RC0     CG2R61
    2     8    12	5 ;     NG3C51     CG2RC0     CG2R61
    7     9    10	5 ;     CG2R61     CG2R61      CLGR1
    7     9    11	5 ;     CG2R61     CG2R61     CG2R61
   10     9    11	5 ;      CLGR1     CG2R61     CG2R61
    9    11    12	5 ;     CG2R61     CG2R61     CG2R61
    9    11    35	5 ;     CG2R61     CG2R61      HGR62
   12    11    35	5 ;     CG2R61     CG2R61      HGR62
    8    12    11	5 ;     CG2RC0     CG2R61     CG2R61
    8    12    36	5 ;     CG2RC0     CG2R61      HGR61
   11    12    36	5 ;     CG2R61     CG2R61      HGR61
   15    13    14	5 ;     HGPAM2      NG321     HGPAM2
   15    13     3	5 ;     HGPAM2      NG321     CG3C51
   14    13     3	5 ;     HGPAM2      NG321     CG3C51
   17    16     1	5 ;      CG321      CG321      CG321
   17    16    37	5 ;      CG321      CG321       HGA2
   17    16    38	5 ;      CG321      CG321       HGA2
    1    16    37	5 ;      CG321      CG321       HGA2
    1    16    38	5 ;      CG321      CG321       HGA2
   37    16    38	5 ;       HGA2      CG321       HGA2
   18    17    16	5 ;      CG2O1      CG321      CG321
   18    17    39	5 ;      CG2O1      CG321       HGA2
   18    17    40	5 ;      CG2O1      CG321       HGA2
   16    17    39	5 ;      CG321      CG321       HGA2
   16    17    40	5 ;      CG321      CG321       HGA2
   39    17    40	5 ;       HGA2      CG321       HGA2
   20    18    19	5 ;      NG2S1      CG2O1      OG2D1
   20    18    17	5 ;      NG2S1      CG2O1      CG321
   19    18    17	5 ;      OG2D1      CG2O1      CG321
   22    20    21	5 ;      CG321      NG2S1       HGP1
   22    20    18	5 ;      CG321      NG2S1      CG2O1
   21    20    18	5 ;       HGP1      NG2S1      CG2O1
   23    22    20	5 ;      CG324      CG321      NG2S1
   23    22    41	5 ;      CG324      CG321       HGA2
   23    22    42	5 ;      CG324      CG321       HGA2
   20    22    41	5 ;      NG2S1      CG321       HGA2
   20    22    42	5 ;      NG2S1      CG321       HGA2
   41    22    42	5 ;       HGA2      CG321       HGA2
   24    23    22	5 ;      NG3P1      CG324      CG321
   24    23    43	5 ;      NG3P1      CG324       HGA2
   24    23    44	5 ;      NG3P1      CG324       HGA2
   22    23    43	5 ;      CG321      CG324       HGA2
   22    23    44	5 ;      CG321      CG324       HGA2
   43    23    44	5 ;       HGA2      CG324       HGA2
   25    24    23	5 ;      CG324      NG3P1      CG324
   25    24    29	5 ;      CG324      NG3P1      CG324
   25    24    30	5 ;      CG324      NG3P1       HGP2
   23    24    29	5 ;      CG324      NG3P1      CG324
   23    24    30	5 ;      CG324      NG3P1       HGP2
   29    24    30	5 ;      CG324      NG3P1       HGP2
   26    25    24	5 ;      CG321      CG324      NG3P1
   26    25    45	5 ;      CG321      CG324       HGA2
   26    25    46	5 ;      CG321      CG324       HGA2
   24    25    45	5 ;      NG3P1      CG324       HGA2
   24    25    46	5 ;      NG3P1      CG324       HGA2
   45    25    46	5 ;       HGA2      CG324       HGA2
   25    26    27	5 ;      CG324      CG321     OG3C61
   25    26    47	5 ;      CG324      CG321       HGA2
   25    26    48	5 ;      CG324      CG321       HGA2
   27    26    47	5 ;     OG3C61      CG321       HGA2
   27    26    48	5 ;     OG3C61      CG321       HGA2
   47    26    48	5 ;       HGA2      CG321       HGA2
   26    27    28	5 ;      CG321     OG3C61      CG321
   27    28    29	5 ;     OG3C61      CG321      CG324
   27    28    49	5 ;     OG3C61      CG321       HGA2
   27    28    50	5 ;     OG3C61      CG321       HGA2
   29    28    49	5 ;      CG324      CG321       HGA2
   29    28    50	5 ;      CG324      CG321       HGA2
   49    28    50	5 ;       HGA2      CG321       HGA2
   24    29    28	5 ;      NG3P1      CG324      CG321
   24    29    51	5 ;      NG3P1      CG324       HGA2
   24    29    52	5 ;      NG3P1      CG324       HGA2
   28    29    51	5 ;      CG321      CG324       HGA2
   28    29    52	5 ;      CG321      CG324       HGA2
   51    29    52	5 ;       HGA2      CG324       HGA2

[ dihedrals ]
;	ai	  aj	ak	  al funct			  c0			c1			  c2			c3			  c4			c5
    2     1    16    17	 9 ;     NG3C51      CG321      CG321      CG321
    2     1    16    37	 9 ;     NG3C51      CG321      CG321       HGA2
    2     1    16    38	 9 ;     NG3C51      CG321      CG321       HGA2
   31     1    16    17	 9 ;       HGA2      CG321      CG321      CG321
   31     1    16    37	 9 ;       HGA2      CG321      CG321       HGA2
   31     1    16    38	 9 ;       HGA2      CG321      CG321       HGA2
   32     1    16    17	 9 ;       HGA2      CG321      CG321      CG321
   32     1    16    37	 9 ;       HGA2      CG321      CG321       HGA2
   32     1    16    38	 9 ;       HGA2      CG321      CG321       HGA2
   16     1     2     3	 9 ;      CG321      CG321     NG3C51     CG3C51
   16     1     2     8	 9 ;      CG321      CG321     NG3C51     CG2RC0
   31     1     2     3	 9 ;       HGA2      CG321     NG3C51     CG3C51
   31     1     2     8	 9 ;       HGA2      CG321     NG3C51     CG2RC0
   32     1     2     3	 9 ;       HGA2      CG321     NG3C51     CG3C51
   32     1     2     8	 9 ;       HGA2      CG321     NG3C51     CG2RC0
    1     2     3    13	 9 ;      CG321     NG3C51     CG3C51      NG321
    1     2     3     4	 9 ;      CG321     NG3C51     CG3C51     NG3C51
    1     2     3    33	 9 ;      CG321     NG3C51     CG3C51       HGA1
    8     2     3    13	 9 ;     CG2RC0     NG3C51     CG3C51      NG321
    8     2     3     4	 9 ;     CG2RC0     NG3C51     CG3C51     NG3C51
    8     2     3    33	 9 ;     CG2RC0     NG3C51     CG3C51       HGA1
    3     2     8     5	 9 ;     CG3C51     NG3C51     CG2RC0     CG2RC0
    3     2     8    12	 9 ;     CG3C51     NG3C51     CG2RC0     CG2R61
    1     2     8     5	 9 ;      CG321     NG3C51     CG2RC0     CG2RC0
    1     2     8    12	 9 ;      CG321     NG3C51     CG2RC0     CG2R61
    4     3    13    15	 9 ;     NG3C51     CG3C51      NG321     HGPAM2
    4     3    13    14	 9 ;     NG3C51     CG3C51      NG321     HGPAM2
    2     3    13    15	 9 ;     NG3C51     CG3C51      NG321     HGPAM2
    2     3    13    14	 9 ;     NG3C51     CG3C51      NG321     HGPAM2
   33     3    13    15	 9 ;       HGA1     CG3C51      NG321     HGPAM2
   33     3    13    14	 9 ;       HGA1     CG3C51      NG321     HGPAM2
   13     3     4     6	 9 ;      NG321     CG3C51     NG3C51       HGP1
   13     3     4     5	 9 ;      NG321     CG3C51     NG3C51     CG2RC0
    2     3     4     6	 9 ;     NG3C51     CG3C51     NG3C51       HGP1
    2     3     4     5	 9 ;     NG3C51     CG3C51     NG3C51     CG2RC0
   33     3     4     6	 9 ;       HGA1     CG3C51     NG3C51       HGP1
   33     3     4     5	 9 ;       HGA1     CG3C51     NG3C51     CG2RC0
    6     4     5     7	 9 ;       HGP1     NG3C51     CG2RC0     CG2R61
    6     4     5     8	 9 ;       HGP1     NG3C51     CG2RC0     CG2RC0
    3     4     5     7	 9 ;     CG3C51     NG3C51     CG2RC0     CG2R61
    3     4     5     8	 9 ;     CG3C51     NG3C51     CG2RC0     CG2RC0
    4     5     7     9	 9 ;     NG3C51     CG2RC0     CG2R61     CG2R61
    4     5     7    34	 9 ;     NG3C51     CG2RC0     CG2R61      HGR62
    8     5     7     9	 9 ;     CG2RC0     CG2RC0     CG2R61     CG2R61
    8     5     7    34	 9 ;     CG2RC0     CG2RC0     CG2R61      HGR62
    4     5     8     2	 9 ;     NG3C51     CG2RC0     CG2RC0     NG3C51
    4     5     8    12	 9 ;     NG3C51     CG2RC0     CG2RC0     CG2R61
    7     5     8     2	 9 ;     CG2R61     CG2RC0     CG2RC0     NG3C51
    7     5     8    12	 9 ;     CG2R61     CG2RC0     CG2RC0     CG2R61
    5     7     9    10	 9 ;     CG2RC0     CG2R61     CG2R61      CLGR1
    5     7     9    11	 9 ;     CG2RC0     CG2R61     CG2R61     CG2R61
   34     7     9    10	 9 ;      HGR62     CG2R61     CG2R61      CLGR1
   34     7     9    11	 9 ;      HGR62     CG2R61     CG2R61     CG2R61
    5     8    12    11	 9 ;     CG2RC0     CG2RC0     CG2R61     CG2R61
    5     8    12    36	 9 ;     CG2RC0     CG2RC0     CG2R61      HGR61
    2     8    12    11	 9 ;     NG3C51     CG2RC0     CG2R61     CG2R61
    2     8    12    36	 9 ;     NG3C51     CG2RC0     CG2R61      HGR61
    7     9    11    12	 9 ;     CG2R61     CG2R61     CG2R61     CG2R61
    7     9    11    35	 9 ;     CG2R61     CG2R61     CG2R61      HGR62
   10     9    11    12	 9 ;      CLGR1     CG2R61     CG2R61     CG2R61
   10     9    11    35	 9 ;      CLGR1     CG2R61     CG2R61      HGR62
    9    11    12     8	 9 ;     CG2R61     CG2R61     CG2R61     CG2RC0
    9    11    12    36	 9 ;     CG2R61     CG2R61     CG2R61      HGR61
   35    11    12     8	 9 ;      HGR62     CG2R61     CG2R61     CG2RC0
   35    11    12    36	 9 ;      HGR62     CG2R61     CG2R61      HGR61
    1    16    17    18	 9 ;      CG321      CG321      CG321      CG2O1
    1    16    17    39	 9 ;      CG321      CG321      CG321       HGA2
    1    16    17    40	 9 ;      CG321      CG321      CG321       HGA2
   37    16    17    18	 9 ;       HGA2      CG321      CG321      CG2O1
   37    16    17    39	 9 ;       HGA2      CG321      CG321       HGA2
   37    16    17    40	 9 ;       HGA2      CG321      CG321       HGA2
   38    16    17    18	 9 ;       HGA2      CG321      CG321      CG2O1
   38    16    17    39	 9 ;       HGA2      CG321      CG321       HGA2
   38    16    17    40	 9 ;       HGA2      CG321      CG321       HGA2
   16    17    18    20	 9 ;      CG321      CG321      CG2O1      NG2S1
   16    17    18    19	 9 ;      CG321      CG321      CG2O1      OG2D1
   39    17    18    20	 9 ;       HGA2      CG321      CG2O1      NG2S1
   39    17    18    19	 9 ;       HGA2      CG321      CG2O1      OG2D1
   40    17    18    20	 9 ;       HGA2      CG321      CG2O1      NG2S1
   40    17    18    19	 9 ;       HGA2      CG321      CG2O1      OG2D1
   19    18    20    22	 9 ;      OG2D1      CG2O1      NG2S1      CG321
   19    18    20    21	 9 ;      OG2D1      CG2O1      NG2S1       HGP1
   17    18    20    22	 9 ;      CG321      CG2O1      NG2S1      CG321
   17    18    20    21	 9 ;      CG321      CG2O1      NG2S1       HGP1
   21    20    22    23	 9 ;       HGP1      NG2S1      CG321      CG324
   21    20    22    41	 9 ;       HGP1      NG2S1      CG321       HGA2
   21    20    22    42	 9 ;       HGP1      NG2S1      CG321       HGA2
   18    20    22    23	 9 ;      CG2O1      NG2S1      CG321      CG324
   18    20    22    41	 9 ;      CG2O1      NG2S1      CG321       HGA2
   18    20    22    42	 9 ;      CG2O1      NG2S1      CG321       HGA2
   20    22    23    24	 9 ;      NG2S1      CG321      CG324      NG3P1
   20    22    23    43	 9 ;      NG2S1      CG321      CG324       HGA2
   20    22    23    44	 9 ;      NG2S1      CG321      CG324       HGA2
   41    22    23    24	 9 ;       HGA2      CG321      CG324      NG3P1
   41    22    23    43	 9 ;       HGA2      CG321      CG324       HGA2
   41    22    23    44	 9 ;       HGA2      CG321      CG324       HGA2
   42    22    23    24	 9 ;       HGA2      CG321      CG324      NG3P1
   42    22    23    43	 9 ;       HGA2      CG321      CG324       HGA2
   42    22    23    44	 9 ;       HGA2      CG321      CG324       HGA2
   22    23    24    25	 9 ;      CG321      CG324      NG3P1      CG324
   22    23    24    29	 9 ;      CG321      CG324      NG3P1      CG324
   22    23    24    30	 9 ;      CG321      CG324      NG3P1       HGP2
   43    23    24    25	 9 ;       HGA2      CG324      NG3P1      CG324
   43    23    24    29	 9 ;       HGA2      CG324      NG3P1      CG324
   43    23    24    30	 9 ;       HGA2      CG324      NG3P1       HGP2
   44    23    24    25	 9 ;       HGA2      CG324      NG3P1      CG324
   44    23    24    29	 9 ;       HGA2      CG324      NG3P1      CG324
   44    23    24    30	 9 ;       HGA2      CG324      NG3P1       HGP2
   23    24    25    26	 9 ;      CG324      NG3P1      CG324      CG321
   23    24    25    45	 9 ;      CG324      NG3P1      CG324       HGA2
   23    24    25    46	 9 ;      CG324      NG3P1      CG324       HGA2
   29    24    25    26	 9 ;      CG324      NG3P1      CG324      CG321
   29    24    25    45	 9 ;      CG324      NG3P1      CG324       HGA2
   29    24    25    46	 9 ;      CG324      NG3P1      CG324       HGA2
   30    24    25    26	 9 ;       HGP2      NG3P1      CG324      CG321
   30    24    25    45	 9 ;       HGP2      NG3P1      CG324       HGA2
   30    24    25    46	 9 ;       HGP2      NG3P1      CG324       HGA2
   25    24    29    28	 9 ;      CG324      NG3P1      CG324      CG321
   25    24    29    51	 9 ;      CG324      NG3P1      CG324       HGA2
   25    24    29    52	 9 ;      CG324      NG3P1      CG324       HGA2
   23    24    29    28	 9 ;      CG324      NG3P1      CG324      CG321
   23    24    29    51	 9 ;      CG324      NG3P1      CG324       HGA2
   23    24    29    52	 9 ;      CG324      NG3P1      CG324       HGA2
   30    24    29    28	 9 ;       HGP2      NG3P1      CG324      CG321
   30    24    29    51	 9 ;       HGP2      NG3P1      CG324       HGA2
   30    24    29    52	 9 ;       HGP2      NG3P1      CG324       HGA2
   24    25    26    27	 9 ;      NG3P1      CG324      CG321     OG3C61
   24    25    26    47	 9 ;      NG3P1      CG324      CG321       HGA2
   24    25    26    48	 9 ;      NG3P1      CG324      CG321       HGA2
   45    25    26    27	 9 ;       HGA2      CG324      CG321     OG3C61
   45    25    26    47	 9 ;       HGA2      CG324      CG321       HGA2
   45    25    26    48	 9 ;       HGA2      CG324      CG321       HGA2
   46    25    26    27	 9 ;       HGA2      CG324      CG321     OG3C61
   46    25    26    47	 9 ;       HGA2      CG324      CG321       HGA2
   46    25    26    48	 9 ;       HGA2      CG324      CG321       HGA2
   25    26    27    28	 9 ;      CG324      CG321     OG3C61      CG321
   47    26    27    28	 9 ;       HGA2      CG321     OG3C61      CG321
   48    26    27    28	 9 ;       HGA2      CG321     OG3C61      CG321
   26    27    28    29	 9 ;      CG321     OG3C61      CG321      CG324
   26    27    28    49	 9 ;      CG321     OG3C61      CG321       HGA2
   26    27    28    50	 9 ;      CG321     OG3C61      CG321       HGA2
   27    28    29    24	 9 ;     OG3C61      CG321      CG324      NG3P1
   27    28    29    51	 9 ;     OG3C61      CG321      CG324       HGA2
   27    28    29    52	 9 ;     OG3C61      CG321      CG324       HGA2
   49    28    29    24	 9 ;       HGA2      CG321      CG324      NG3P1
   49    28    29    51	 9 ;       HGA2      CG321      CG324       HGA2
   49    28    29    52	 9 ;       HGA2      CG321      CG324       HGA2
   50    28    29    24	 9 ;       HGA2      CG321      CG324      NG3P1
   50    28    29    51	 9 ;       HGA2      CG321      CG324       HGA2
   50    28    29    52	 9 ;       HGA2      CG321      CG324       HGA2

[ dihedrals ]
;	ai	  aj	ak	  al funct			  c0			c1			  c2			c3
   18    17    20    19	 2

[ virtual_sites2 ]
; Site   from				funct a
   53    10     9     2   -0.164

[ exclusions ]
;	ai	  aj
   10    53
   53     9
   53     7
   53    11
   53     5
   53    34
   53    12
   53    35

