Great Red Owns Many ACres of Sand 
   53
    1LIG     C1    1  -1.283   0.491  -1.694
    1LIG     N1    2  -1.267   0.354  -1.742
    1LIG     C2    3  -1.326   0.298  -1.852
    1LIG     N2    4  -1.280   0.178  -1.876
    1LIG     C3    5  -1.192   0.151  -1.773
    1LIG     HN    6  -1.304   0.117  -1.954
    1LIG     C4    7  -1.117   0.035  -1.749
    1LIG     C5    8  -1.184   0.259  -1.686
    1LIG     C6    9  -1.037   0.032  -1.635
    1LIG     CL   10  -0.944  -0.109  -1.601
    1LIG     C7   11  -1.030   0.141  -1.548
    1LIG     C8   12  -1.102   0.258  -1.572
    1LIG     N3   13  -1.421   0.360  -1.925
    1LIG     H1   14  -1.384   0.446  -1.964
    1LIG     H2   15  -1.460   0.305  -2.002
    1LIG     C9   16  -1.179   0.585  -1.756
    1LIG    C10   17  -1.239   0.695  -1.843
    1LIG    C11   18  -1.207   0.691  -1.992
    1LIG     O1   19  -1.111   0.753  -2.038
    1LIG     N4   20  -1.296   0.626  -2.073
    1LIG     H3   21  -1.369   0.571  -2.027
    1LIG    C12   22  -1.277   0.599  -2.215
    1LIG    C13   23  -1.257   0.452  -2.259
    1LIG     N5   24  -1.370   0.360  -2.220
    1LIG    C14   25  -1.504   0.392  -2.284
    1LIG    C15   26  -1.610   0.293  -2.235
    1LIG     O2   27  -1.571   0.158  -2.264
    1LIG    C16   28  -1.451   0.123  -2.195
    1LIG    C17   29  -1.334   0.213  -2.239
    1LIG     H4   30  -1.385   0.375  -2.117
    1LIG     H5   31  -1.380   0.525  -1.720
    1LIG     H6   32  -1.268   0.491  -1.588
    1LIG     H7   33  -1.392   0.340  -1.925
    1LIG     H8   34  -1.122  -0.045  -1.813
    1LIG     H9   35  -0.970   0.135  -1.464
    1LIG    H10   36  -1.097   0.339  -1.509
    1LIG    H11   37  -1.124   0.631  -1.677
    1LIG    H12   38  -1.117   0.525  -1.820
    1LIG    H13   39  -1.345   0.690  -1.833
    1LIG    H14   40  -1.194   0.786  -1.808
    1LIG    H15   41  -1.363   0.636  -2.267
    1LIG    H16   42  -1.184   0.647  -2.239
    1LIG    H17   43  -1.247   0.449  -2.365
    1LIG    H18   44  -1.169   0.416  -2.208
    1LIG    H19   45  -1.533   0.491  -2.258
    1LIG    H20   46  -1.495   0.384  -2.390
    1LIG    H21   47  -1.703   0.314  -2.284
    1LIG    H22   48  -1.621   0.303  -2.129
    1LIG    H23   49  -1.427   0.022  -2.217
    1LIG    H24   50  -1.467   0.137  -2.090
    1LIG    H25   51  -1.248   0.190  -2.179
    1LIG    H26   52  -1.314   0.196  -2.342
    1LIG    LP1   53  -0.857  -0.244  -1.568
   0.00000   0.00000   0.00000
