GROtesk MACabre and Sinister
   76
    1LIG     N1    1  -1.639   0.641  -1.511
    1LIG     H1    2  -1.546   0.656  -1.470
    1LIG     H2    3  -1.702   0.638  -1.429
    1LIG     C1    4  -1.682   0.770  -1.593
    1LIG     C2    5  -1.571   0.885  -1.599
    1LIG     C3    6  -1.465   0.887  -1.722
    1LIG     C4    7  -1.411   0.747  -1.760
    1LIG     C5    8  -1.274   0.706  -1.713
    1LIG     C6    9  -1.251   0.702  -1.575
    1LIG     C7   10  -1.133   0.648  -1.523
    1LIG     F1   11  -1.115   0.648  -1.391
    1LIG     C8   12  -1.034   0.599  -1.606
    1LIG     C9   13  -1.055   0.600  -1.742
    1LIG    C10   14  -1.174   0.652  -1.796
    1LIG     F2   15  -0.964   0.549  -1.824
    1LIG     N2   16  -1.520   0.954  -1.842
    1LIG    C11   17  -1.513   1.082  -1.890
    1LIG     O1   18  -1.569   1.105  -1.997
    1LIG    C12   19  -1.443   1.194  -1.815
    1LIG     H3   20  -1.580   0.900  -1.903
    1LIG     O2   21  -1.640   1.012  -1.595
    1LIG     H4   22  -1.653   1.043  -1.687
    1LIG    C13   23  -1.638   0.491  -1.575
    1LIG    C14   24  -1.680   0.500  -1.725
    1LIG    C15   25  -1.700   0.361  -1.788
    1LIG    C16   26  -1.804   0.277  -1.715
    1LIG    C17   27  -1.783   0.275  -1.564
    1LIG    C18   28  -1.753   0.413  -1.504
    1LIG    C19   29  -1.494   0.425  -1.560
    1LIG    C20   30  -1.430   0.402  -1.433
    1LIG    C21   31  -1.304   0.337  -1.417
    1LIG    C22   32  -1.238   0.297  -1.534
    1LIG    C23   33  -1.294   0.319  -1.660
    1LIG    C24   34  -1.420   0.384  -1.672
    1LIG    C25   35  -1.222   0.267  -1.781
    1LIG    C26   36  -1.244   0.292  -1.280
    1LIG    C27   37  -1.105   0.227  -1.291
    1LIG    C28   38  -1.231   0.420  -1.193
    1LIG    C29   39  -1.332   0.192  -1.200
    1LIG    HC2   40  -1.705   0.739  -1.695
    1LIG    HC3   41  -1.772   0.811  -1.548
    1LIG     HC   42  -1.513   0.877  -1.507
    1LIG    HC1   43  -1.379   0.946  -1.689
    1LIG    HC4   44  -1.410   0.742  -1.869
    1LIG    HC5   45  -1.482   0.673  -1.724
    1LIG    HC6   46  -1.325   0.742  -1.507
    1LIG    HC7   47  -0.942   0.559  -1.565
    1LIG    HC8   48  -1.190   0.650  -1.903
    1LIG    HC9   49  -1.773   0.556  -1.732
    1LIG   HC10   50  -1.602   0.554  -1.780
    1LIG   HC11   51  -1.605   0.308  -1.786
    1LIG   HC12   52  -1.731   0.373  -1.892
    1LIG   HC13   53  -1.903   0.319  -1.735
    1LIG   HC14   54  -1.801   0.175  -1.753
    1LIG   HC15   55  -1.699   0.209  -1.542
    1LIG   HC16   56  -1.872   0.235  -1.516
    1LIG   HC17   57  -1.844   0.473  -1.510
    1LIG   HC18   58  -1.726   0.400  -1.399
    1LIG   HC19   59  -1.481   0.435  -1.344
    1LIG   HC20   60  -1.142   0.249  -1.527
    1LIG   HC21   61  -1.460   0.403  -1.771
    1LIG   HC22   62  -1.278   0.292  -1.871
    1LIG   HC23   63  -1.123   0.312  -1.787
    1LIG   HC24   64  -1.212   0.158  -1.774
    1LIG   HC25   65  -1.432   0.233  -1.189
    1LIG   HC26   66  -1.337   0.097  -1.253
    1LIG   HC27   67  -1.288   0.176  -1.101
    1LIG   HC28   68  -1.066   0.207  -1.191
    1LIG   HC29   69  -1.112   0.133  -1.347
    1LIG   HC30   70  -1.037   0.295  -1.344
    1LIG   HC31   71  -1.170   0.493  -1.245
    1LIG   HC32   72  -1.184   0.394  -1.098
    1LIG   HC33   73  -1.330   0.461  -1.174
    1LIG   HC34   74  -1.452   1.287  -1.872
    1LIG   HC35   75  -1.337   1.170  -1.804
    1LIG   HC36   76  -1.488   1.207  -1.717
   0.00000   0.00000   0.00000
