; Created by cgenff_charmm2gmx.py

[ moleculetype ]
; Name			   nrexcl
LIG				 3

[ atoms ]
;	 nr		  type	resnr residue  atom   cgnr	   charge		mass  typeB    chargeB		massB
; residue	 1 LIG rtp LIG q	qsum
     1      SG3O2      1    LIG      S      1      0.113     32.060   ;
     2      OG2P1      1    LIG     O1      2     -0.300     15.999   ;
     3      OG2P1      1    LIG     O2      3     -0.300     15.999   ;
     4      CG321      1    LIG     C1      4      0.180     12.011   ;
     5      CG311      1    LIG     C2      5     -0.145     12.011   ;
     6      CG311      1    LIG     C3      6      0.100     12.011   ;
     7      CG314      1    LIG     C4      7     -0.043     12.011   ;
     8      CG321      1    LIG     C5      8      0.224     12.011   ;
     9      CG321      1    LIG     C6      9     -0.108     12.011   ;
    10     CG2R61      1    LIG     C7     10      0.007     12.011   ;
    11     CG2R61      1    LIG     C8     11     -0.115     12.011   ;
    12     CG2R61      1    LIG     C9     12      0.066     12.011   ;
    13     CG2R61      1    LIG    C10     13      0.140     12.011   ;
    14     CG2R66      1    LIG    C11     14      0.006     12.011   ;
    15       FGR1      1    LIG      F     15     -0.230     18.998   ;
    16     CG2R61      1    LIG    C12     16     -0.121     12.011   ;
    17      CG321      1    LIG    C13     17     -0.215     12.011   ;
    18      CG321      1    LIG    C14     18     -0.180     12.011   ;
    19      CG331      1    LIG    C15     19     -0.270     12.011   ;
    20      NG2S3      1    LIG     N1     20     -0.742     14.007   ;
    21       HGP4      1    LIG     H1     21      0.357      1.008   ;
    22       HGP4      1    LIG     H2     22      0.357      1.008   ;
    23      OG311      1    LIG     O3     23     -0.595     15.999   ;
    24       HGP1      1    LIG     H3     24      0.422      1.008   ;
    25      NG3P2      1    LIG     N2     25     -0.444     14.007   ;
    26       HGP2      1    LIG     H4     26      0.346      1.008   ;
    27       HGP2      1    LIG     H5     27      0.346      1.008   ;
    28      CG324      1    LIG    C16     28      0.178     12.011   ;
    29     CG2R61      1    LIG    C17     29      0.036     12.011   ;
    30     CG2R61      1    LIG    C18     30     -0.124     12.011   ;
    31     CG2R61      1    LIG    C19     31      0.084     12.011   ;
    32     CG2R61      1    LIG    C20     32     -0.121     12.011   ;
    33     CG2R61      1    LIG    C21     33     -0.108     12.011   ;
    34     CG2R61      1    LIG    C22     34     -0.119     12.011   ;
    35      CG301      1    LIG    C23     35     -0.018     12.011   ;
    36      CG331      1    LIG    C24     36     -0.289     12.011   ;
    37      CG331      1    LIG    C25     37     -0.289     12.011   ;
    38      CG331      1    LIG    C26     38     -0.289     12.011   ;
    39       HGA2      1    LIG    HC2     39      0.090      1.008   ;
    40       HGA2      1    LIG    HC3     40      0.090      1.008   ;
    41       HGA1      1    LIG     HC     41      0.090      1.008   ;
    42       HGA1      1    LIG    HC1     42      0.090      1.008   ;
    43       HGA1      1    LIG    HC4     43      0.109      1.008   ;
    44       HGA2      1    LIG    HC5     44      0.090      1.008   ;
    45       HGA2      1    LIG    HC6     45      0.090      1.008   ;
    46       HGA2      1    LIG    HC7     46      0.090      1.008   ;
    47       HGA2      1    LIG    HC8     47      0.090      1.008   ;
    48      HGR61      1    LIG    HC9     48      0.116      1.008   ;
    49      HGR62      1    LIG   HC10     49      0.174      1.008   ;
    50       HGA2      1    LIG   HC11     50      0.090      1.008   ;
    51       HGA2      1    LIG   HC12     51      0.090      1.008   ;
    52       HGA2      1    LIG   HC13     52      0.090      1.008   ;
    53       HGA2      1    LIG   HC14     53      0.090      1.008   ;
    54       HGA2      1    LIG   HC15     54      0.090      1.008   ;
    55       HGA2      1    LIG   HC16     55      0.090      1.008   ;
    56      HGR61      1    LIG   HC17     56      0.116      1.008   ;
    57      HGR61      1    LIG   HC18     57      0.116      1.008   ;
    58      HGR61      1    LIG   HC19     58      0.116      1.008   ;
    59      HGR61      1    LIG   HC20     59      0.116      1.008   ;
    60       HGA3      1    LIG   HC21     60      0.090      1.008   ;
    61       HGA3      1    LIG   HC22     61      0.090      1.008   ;
    62       HGA3      1    LIG   HC23     62      0.090      1.008   ;
    63       HGA3      1    LIG   HC24     63      0.090      1.008   ;
    64       HGA3      1    LIG   HC25     64      0.090      1.008   ;
    65       HGA3      1    LIG   HC26     65      0.090      1.008   ;
    66       HGA3      1    LIG   HC27     66      0.090      1.008   ;
    67       HGA3      1    LIG   HC28     67      0.090      1.008   ;
    68       HGA3      1    LIG   HC29     68      0.090      1.008   ;
    69       HGA3      1    LIG   HC30     69      0.090      1.008   ;
    70       HGA3      1    LIG   HC31     70      0.090      1.008   ;
    71       HGA3      1    LIG   HC32     71      0.090      1.008   ;

[ bonds ]
;	ai	  aj funct			  c0			c1			  c2			c3
    1     8	 1 ;       SG3O2      CG321
    1     2	 1 ;       SG3O2      OG2P1
    1     4	 1 ;       SG3O2      CG321
    1     3	 1 ;       SG3O2      OG2P1
    4     5	 1 ;       CG321      CG311
    4    39	 1 ;       CG321       HGA2
    4    40	 1 ;       CG321       HGA2
    5     9	 1 ;       CG311      CG321
    5     6	 1 ;       CG311      CG311
    5    41	 1 ;       CG311       HGA1
    6    23	 1 ;       CG311      OG311
    6     7	 1 ;       CG311      CG314
    6    42	 1 ;       CG311       HGA1
    7    25	 1 ;       CG314      NG3P2
    7     8	 1 ;       CG314      CG321
    7    43	 1 ;       CG314       HGA1
    8    44	 1 ;       CG321       HGA2
    8    45	 1 ;       CG321       HGA2
    9    10	 1 ;       CG321     CG2R61
    9    46	 1 ;       CG321       HGA2
    9    47	 1 ;       CG321       HGA2
   10    11	 1 ;      CG2R61     CG2R61
   10    16	 1 ;      CG2R61     CG2R61
   11    12	 1 ;      CG2R61     CG2R61
   11    48	 1 ;      CG2R61      HGR61
   12    17	 1 ;      CG2R61      CG321
   12    13	 1 ;      CG2R61     CG2R61
   13    20	 1 ;      CG2R61      NG2S3
   13    14	 1 ;      CG2R61     CG2R66
   14    15	 1 ;      CG2R66       FGR1
   14    16	 1 ;      CG2R66     CG2R61
   16    49	 1 ;      CG2R61      HGR62
   17    18	 1 ;       CG321      CG321
   17    50	 1 ;       CG321       HGA2
   17    51	 1 ;       CG321       HGA2
   18    19	 1 ;       CG321      CG331
   18    52	 1 ;       CG321       HGA2
   18    53	 1 ;       CG321       HGA2
   19    60	 1 ;       CG331       HGA3
   19    61	 1 ;       CG331       HGA3
   19    62	 1 ;       CG331       HGA3
   20    21	 1 ;       NG2S3       HGP4
   20    22	 1 ;       NG2S3       HGP4
   23    24	 1 ;       OG311       HGP1
   25    28	 1 ;       NG3P2      CG324
   25    26	 1 ;       NG3P2       HGP2
   25    27	 1 ;       NG3P2       HGP2
   28    29	 1 ;       CG324     CG2R61
   28    54	 1 ;       CG324       HGA2
   28    55	 1 ;       CG324       HGA2
   29    34	 1 ;      CG2R61     CG2R61
   29    30	 1 ;      CG2R61     CG2R61
   30    31	 1 ;      CG2R61     CG2R61
   30    56	 1 ;      CG2R61      HGR61
   31    32	 1 ;      CG2R61     CG2R61
   31    35	 1 ;      CG2R61      CG301
   32    33	 1 ;      CG2R61     CG2R61
   32    57	 1 ;      CG2R61      HGR61
   33    34	 1 ;      CG2R61     CG2R61
   33    58	 1 ;      CG2R61      HGR61
   34    59	 1 ;      CG2R61      HGR61
   35    38	 1 ;       CG301      CG331
   35    36	 1 ;       CG301      CG331
   35    37	 1 ;       CG301      CG331
   36    63	 1 ;       CG331       HGA3
   36    64	 1 ;       CG331       HGA3
   36    65	 1 ;       CG331       HGA3
   37    69	 1 ;       CG331       HGA3
   37    70	 1 ;       CG331       HGA3
   37    71	 1 ;       CG331       HGA3
   38    66	 1 ;       CG331       HGA3
   38    67	 1 ;       CG331       HGA3
   38    68	 1 ;       CG331       HGA3

[ pairs ]
;	ai	  aj funct			  c0			c1			  c2			c3
    1     9	 1
    1     6	 1
    1    41	 1
    1    25	 1
    1    43	 1
    2     7	 1
    2    44	 1
    2    45	 1
    2     5	 1
    2    39	 1
    2    40	 1
    3     7	 1
    3    44	 1
    3    45	 1
    3     5	 1
    3    39	 1
    3    40	 1
    4     7	 1
    4    44	 1
    4    45	 1
    4    10	 1
    4    46	 1
    4    47	 1
    4    23	 1
    4    42	 1
    5     8	 1
    5    24	 1
    5    25	 1
    5    43	 1
    5    11	 1
    5    16	 1
    6    39	 1
    6    40	 1
    6    10	 1
    6    46	 1
    6    47	 1
    6    28	 1
    6    26	 1
    6    27	 1
    6    44	 1
    6    45	 1
    7     9	 1
    7    41	 1
    7    24	 1
    7    29	 1
    7    54	 1
    7    55	 1
    8    39	 1
    8    40	 1
    8    23	 1
    8    42	 1
    8    28	 1
    8    26	 1
    8    27	 1
    9    39	 1
    9    40	 1
    9    23	 1
    9    42	 1
    9    12	 1
    9    48	 1
    9    14	 1
    9    49	 1
   10    41	 1
   10    17	 1
   10    13	 1
   10    15	 1
   11    46	 1
   11    47	 1
   11    14	 1
   11    49	 1
   11    18	 1
   11    50	 1
   11    51	 1
   11    20	 1
   12    16	 1
   12    21	 1
   12    22	 1
   12    15	 1
   12    19	 1
   12    52	 1
   12    53	 1
   13    48	 1
   13    18	 1
   13    50	 1
   13    51	 1
   13    49	 1
   14    17	 1
   14    21	 1
   14    22	 1
   15    20	 1
   15    49	 1
   16    46	 1
   16    47	 1
   16    48	 1
   16    20	 1
   17    48	 1
   17    20	 1
   17    60	 1
   17    61	 1
   17    62	 1
   19    50	 1
   19    51	 1
   23    41	 1
   23    25	 1
   23    43	 1
   24    42	 1
   25    42	 1
   25    44	 1
   25    45	 1
   25    34	 1
   25    30	 1
   26    43	 1
   26    29	 1
   26    54	 1
   26    55	 1
   27    43	 1
   27    29	 1
   27    54	 1
   27    55	 1
   28    43	 1
   28    33	 1
   28    59	 1
   28    31	 1
   28    56	 1
   29    32	 1
   29    35	 1
   29    58	 1
   30    54	 1
   30    55	 1
   30    33	 1
   30    59	 1
   30    57	 1
   30    38	 1
   30    36	 1
   30    37	 1
   31    34	 1
   31    58	 1
   31    66	 1
   31    67	 1
   31    68	 1
   31    63	 1
   31    64	 1
   31    65	 1
   31    69	 1
   31    70	 1
   31    71	 1
   32    56	 1
   32    38	 1
   32    36	 1
   32    37	 1
   32    59	 1
   33    35	 1
   34    54	 1
   34    55	 1
   34    56	 1
   34    57	 1
   35    56	 1
   35    57	 1
   36    66	 1
   36    67	 1
   36    68	 1
   36    69	 1
   36    70	 1
   36    71	 1
   37    66	 1
   37    67	 1
   37    68	 1
   37    63	 1
   37    64	 1
   37    65	 1
   38    63	 1
   38    64	 1
   38    65	 1
   38    69	 1
   38    70	 1
   38    71	 1
   39    41	 1
   40    41	 1
   41    46	 1
   41    47	 1
   41    42	 1
   42    43	 1
   43    44	 1
   43    45	 1
   50    52	 1
   50    53	 1
   51    52	 1
   51    53	 1
   52    60	 1
   52    61	 1
   52    62	 1
   53    60	 1
   53    61	 1
   53    62	 1
   57    58	 1
   58    59	 1

[ angles ]
;	ai	  aj	ak funct			c0			  c1			c2			  c3
    8     1     2	5 ;      CG321      SG3O2      OG2P1
    8     1     4	5 ;      CG321      SG3O2      CG321
    8     1     3	5 ;      CG321      SG3O2      OG2P1
    2     1     4	5 ;      OG2P1      SG3O2      CG321
    2     1     3	5 ;      OG2P1      SG3O2      OG2P1
    4     1     3	5 ;      CG321      SG3O2      OG2P1
    5     4     1	5 ;      CG311      CG321      SG3O2
    5     4    39	5 ;      CG311      CG321       HGA2
    5     4    40	5 ;      CG311      CG321       HGA2
    1     4    39	5 ;      SG3O2      CG321       HGA2
    1     4    40	5 ;      SG3O2      CG321       HGA2
   39     4    40	5 ;       HGA2      CG321       HGA2
    9     5     6	5 ;      CG321      CG311      CG311
    9     5     4	5 ;      CG321      CG311      CG321
    9     5    41	5 ;      CG321      CG311       HGA1
    6     5     4	5 ;      CG311      CG311      CG321
    6     5    41	5 ;      CG311      CG311       HGA1
    4     5    41	5 ;      CG321      CG311       HGA1
   23     6     7	5 ;      OG311      CG311      CG314
   23     6     5	5 ;      OG311      CG311      CG311
   23     6    42	5 ;      OG311      CG311       HGA1
    7     6     5	5 ;      CG314      CG311      CG311
    7     6    42	5 ;      CG314      CG311       HGA1
    5     6    42	5 ;      CG311      CG311       HGA1
   25     7     6	5 ;      NG3P2      CG314      CG311
   25     7     8	5 ;      NG3P2      CG314      CG321
   25     7    43	5 ;      NG3P2      CG314       HGA1
    6     7     8	5 ;      CG311      CG314      CG321
    6     7    43	5 ;      CG311      CG314       HGA1
    8     7    43	5 ;      CG321      CG314       HGA1
    7     8     1	5 ;      CG314      CG321      SG3O2
    7     8    44	5 ;      CG314      CG321       HGA2
    7     8    45	5 ;      CG314      CG321       HGA2
    1     8    44	5 ;      SG3O2      CG321       HGA2
    1     8    45	5 ;      SG3O2      CG321       HGA2
   44     8    45	5 ;       HGA2      CG321       HGA2
   10     9     5	5 ;     CG2R61      CG321      CG311
   10     9    46	5 ;     CG2R61      CG321       HGA2
   10     9    47	5 ;     CG2R61      CG321       HGA2
    5     9    46	5 ;      CG311      CG321       HGA2
    5     9    47	5 ;      CG311      CG321       HGA2
   46     9    47	5 ;       HGA2      CG321       HGA2
   11    10    16	5 ;     CG2R61     CG2R61     CG2R61
   11    10     9	5 ;     CG2R61     CG2R61      CG321
   16    10     9	5 ;     CG2R61     CG2R61      CG321
   12    11    10	5 ;     CG2R61     CG2R61     CG2R61
   12    11    48	5 ;     CG2R61     CG2R61      HGR61
   10    11    48	5 ;     CG2R61     CG2R61      HGR61
   17    12    13	5 ;      CG321     CG2R61     CG2R61
   17    12    11	5 ;      CG321     CG2R61     CG2R61
   13    12    11	5 ;     CG2R61     CG2R61     CG2R61
   20    13    12	5 ;      NG2S3     CG2R61     CG2R61
   20    13    14	5 ;      NG2S3     CG2R61     CG2R66
   12    13    14	5 ;     CG2R61     CG2R61     CG2R66
   13    14    15	5 ;     CG2R61     CG2R66       FGR1
   13    14    16	5 ;     CG2R61     CG2R66     CG2R61
   15    14    16	5 ;       FGR1     CG2R66     CG2R61
   14    16    10	5 ;     CG2R66     CG2R61     CG2R61
   14    16    49	5 ;     CG2R66     CG2R61      HGR62
   10    16    49	5 ;     CG2R61     CG2R61      HGR62
   18    17    12	5 ;      CG321      CG321     CG2R61
   18    17    50	5 ;      CG321      CG321       HGA2
   18    17    51	5 ;      CG321      CG321       HGA2
   12    17    50	5 ;     CG2R61      CG321       HGA2
   12    17    51	5 ;     CG2R61      CG321       HGA2
   50    17    51	5 ;       HGA2      CG321       HGA2
   19    18    17	5 ;      CG331      CG321      CG321
   19    18    52	5 ;      CG331      CG321       HGA2
   19    18    53	5 ;      CG331      CG321       HGA2
   17    18    52	5 ;      CG321      CG321       HGA2
   17    18    53	5 ;      CG321      CG321       HGA2
   52    18    53	5 ;       HGA2      CG321       HGA2
   18    19    60	5 ;      CG321      CG331       HGA3
   18    19    61	5 ;      CG321      CG331       HGA3
   18    19    62	5 ;      CG321      CG331       HGA3
   60    19    61	5 ;       HGA3      CG331       HGA3
   60    19    62	5 ;       HGA3      CG331       HGA3
   61    19    62	5 ;       HGA3      CG331       HGA3
   21    20    22	5 ;       HGP4      NG2S3       HGP4
   21    20    13	5 ;       HGP4      NG2S3     CG2R61
   22    20    13	5 ;       HGP4      NG2S3     CG2R61
   24    23     6	5 ;       HGP1      OG311      CG311
   28    25    26	5 ;      CG324      NG3P2       HGP2
   28    25    27	5 ;      CG324      NG3P2       HGP2
   28    25     7	5 ;      CG324      NG3P2      CG314
   26    25    27	5 ;       HGP2      NG3P2       HGP2
   26    25     7	5 ;       HGP2      NG3P2      CG314
   27    25     7	5 ;       HGP2      NG3P2      CG314
   29    28    25	5 ;     CG2R61      CG324      NG3P2
   29    28    54	5 ;     CG2R61      CG324       HGA2
   29    28    55	5 ;     CG2R61      CG324       HGA2
   25    28    54	5 ;      NG3P2      CG324       HGA2
   25    28    55	5 ;      NG3P2      CG324       HGA2
   54    28    55	5 ;       HGA2      CG324       HGA2
   34    29    30	5 ;     CG2R61     CG2R61     CG2R61
   34    29    28	5 ;     CG2R61     CG2R61      CG324
   30    29    28	5 ;     CG2R61     CG2R61      CG324
   31    30    29	5 ;     CG2R61     CG2R61     CG2R61
   31    30    56	5 ;     CG2R61     CG2R61      HGR61
   29    30    56	5 ;     CG2R61     CG2R61      HGR61
   32    31    35	5 ;     CG2R61     CG2R61      CG301
   32    31    30	5 ;     CG2R61     CG2R61     CG2R61
   35    31    30	5 ;      CG301     CG2R61     CG2R61
   33    32    31	5 ;     CG2R61     CG2R61     CG2R61
   33    32    57	5 ;     CG2R61     CG2R61      HGR61
   31    32    57	5 ;     CG2R61     CG2R61      HGR61
   32    33    34	5 ;     CG2R61     CG2R61     CG2R61
   32    33    58	5 ;     CG2R61     CG2R61      HGR61
   34    33    58	5 ;     CG2R61     CG2R61      HGR61
   33    34    29	5 ;     CG2R61     CG2R61     CG2R61
   33    34    59	5 ;     CG2R61     CG2R61      HGR61
   29    34    59	5 ;     CG2R61     CG2R61      HGR61
   38    35    31	5 ;      CG331      CG301     CG2R61
   38    35    36	5 ;      CG331      CG301      CG331
   38    35    37	5 ;      CG331      CG301      CG331
   31    35    36	5 ;     CG2R61      CG301      CG331
   31    35    37	5 ;     CG2R61      CG301      CG331
   36    35    37	5 ;      CG331      CG301      CG331
   35    36    63	5 ;      CG301      CG331       HGA3
   35    36    64	5 ;      CG301      CG331       HGA3
   35    36    65	5 ;      CG301      CG331       HGA3
   63    36    64	5 ;       HGA3      CG331       HGA3
   63    36    65	5 ;       HGA3      CG331       HGA3
   64    36    65	5 ;       HGA3      CG331       HGA3
   35    37    69	5 ;      CG301      CG331       HGA3
   35    37    70	5 ;      CG301      CG331       HGA3
   35    37    71	5 ;      CG301      CG331       HGA3
   69    37    70	5 ;       HGA3      CG331       HGA3
   69    37    71	5 ;       HGA3      CG331       HGA3
   70    37    71	5 ;       HGA3      CG331       HGA3
   35    38    66	5 ;      CG301      CG331       HGA3
   35    38    67	5 ;      CG301      CG331       HGA3
   35    38    68	5 ;      CG301      CG331       HGA3
   66    38    67	5 ;       HGA3      CG331       HGA3
   66    38    68	5 ;       HGA3      CG331       HGA3
   67    38    68	5 ;       HGA3      CG331       HGA3

[ dihedrals ]
;	ai	  aj	ak	  al funct			  c0			c1			  c2			c3			  c4			c5
    2     1     8     7	 9 ;      OG2P1      SG3O2      CG321      CG314
    2     1     8    44	 9 ;      OG2P1      SG3O2      CG321       HGA2
    2     1     8    45	 9 ;      OG2P1      SG3O2      CG321       HGA2
    4     1     8     7	 9 ;      CG321      SG3O2      CG321      CG314
    4     1     8    44	 9 ;      CG321      SG3O2      CG321       HGA2
    4     1     8    45	 9 ;      CG321      SG3O2      CG321       HGA2
    3     1     8     7	 9 ;      OG2P1      SG3O2      CG321      CG314
    3     1     8    44	 9 ;      OG2P1      SG3O2      CG321       HGA2
    3     1     8    45	 9 ;      OG2P1      SG3O2      CG321       HGA2
    8     1     4     5	 9 ;      CG321      SG3O2      CG321      CG311
    8     1     4    39	 9 ;      CG321      SG3O2      CG321       HGA2
    8     1     4    40	 9 ;      CG321      SG3O2      CG321       HGA2
    2     1     4     5	 9 ;      OG2P1      SG3O2      CG321      CG311
    2     1     4    39	 9 ;      OG2P1      SG3O2      CG321       HGA2
    2     1     4    40	 9 ;      OG2P1      SG3O2      CG321       HGA2
    3     1     4     5	 9 ;      OG2P1      SG3O2      CG321      CG311
    3     1     4    39	 9 ;      OG2P1      SG3O2      CG321       HGA2
    3     1     4    40	 9 ;      OG2P1      SG3O2      CG321       HGA2
    1     4     5     9	 9 ;      SG3O2      CG321      CG311      CG321
    1     4     5     6	 9 ;      SG3O2      CG321      CG311      CG311
    1     4     5    41	 9 ;      SG3O2      CG321      CG311       HGA1
   39     4     5     9	 9 ;       HGA2      CG321      CG311      CG321
   39     4     5     6	 9 ;       HGA2      CG321      CG311      CG311
   39     4     5    41	 9 ;       HGA2      CG321      CG311       HGA1
   40     4     5     9	 9 ;       HGA2      CG321      CG311      CG321
   40     4     5     6	 9 ;       HGA2      CG321      CG311      CG311
   40     4     5    41	 9 ;       HGA2      CG321      CG311       HGA1
    6     5     9    10	 9 ;      CG311      CG311      CG321     CG2R61
    6     5     9    46	 9 ;      CG311      CG311      CG321       HGA2
    6     5     9    47	 9 ;      CG311      CG311      CG321       HGA2
    4     5     9    10	 9 ;      CG321      CG311      CG321     CG2R61
    4     5     9    46	 9 ;      CG321      CG311      CG321       HGA2
    4     5     9    47	 9 ;      CG321      CG311      CG321       HGA2
   41     5     9    10	 9 ;       HGA1      CG311      CG321     CG2R61
   41     5     9    46	 9 ;       HGA1      CG311      CG321       HGA2
   41     5     9    47	 9 ;       HGA1      CG311      CG321       HGA2
    9     5     6    23	 9 ;      CG321      CG311      CG311      OG311
    9     5     6     7	 9 ;      CG321      CG311      CG311      CG314
    9     5     6    42	 9 ;      CG321      CG311      CG311       HGA1
    4     5     6    23	 9 ;      CG321      CG311      CG311      OG311
    4     5     6     7	 9 ;      CG321      CG311      CG311      CG314
    4     5     6    42	 9 ;      CG321      CG311      CG311       HGA1
   41     5     6    23	 9 ;       HGA1      CG311      CG311      OG311
   41     5     6     7	 9 ;       HGA1      CG311      CG311      CG314
   41     5     6    42	 9 ;       HGA1      CG311      CG311       HGA1
    7     6    23    24	 9 ;      CG314      CG311      OG311       HGP1
    5     6    23    24	 9 ;      CG311      CG311      OG311       HGP1
   42     6    23    24	 9 ;       HGA1      CG311      OG311       HGP1
   23     6     7    25	 9 ;      OG311      CG311      CG314      NG3P2
   23     6     7     8	 9 ;      OG311      CG311      CG314      CG321
   23     6     7    43	 9 ;      OG311      CG311      CG314       HGA1
    5     6     7    25	 9 ;      CG311      CG311      CG314      NG3P2
    5     6     7     8	 9 ;      CG311      CG311      CG314      CG321
    5     6     7    43	 9 ;      CG311      CG311      CG314       HGA1
   42     6     7    25	 9 ;       HGA1      CG311      CG314      NG3P2
   42     6     7     8	 9 ;       HGA1      CG311      CG314      CG321
   42     6     7    43	 9 ;       HGA1      CG311      CG314       HGA1
    6     7    25    28	 9 ;      CG311      CG314      NG3P2      CG324
    6     7    25    26	 9 ;      CG311      CG314      NG3P2       HGP2
    6     7    25    27	 9 ;      CG311      CG314      NG3P2       HGP2
    8     7    25    28	 9 ;      CG321      CG314      NG3P2      CG324
    8     7    25    26	 9 ;      CG321      CG314      NG3P2       HGP2
    8     7    25    27	 9 ;      CG321      CG314      NG3P2       HGP2
   43     7    25    28	 9 ;       HGA1      CG314      NG3P2      CG324
   43     7    25    26	 9 ;       HGA1      CG314      NG3P2       HGP2
   43     7    25    27	 9 ;       HGA1      CG314      NG3P2       HGP2
   25     7     8     1	 9 ;      NG3P2      CG314      CG321      SG3O2
   25     7     8    44	 9 ;      NG3P2      CG314      CG321       HGA2
   25     7     8    45	 9 ;      NG3P2      CG314      CG321       HGA2
    6     7     8     1	 9 ;      CG311      CG314      CG321      SG3O2
    6     7     8    44	 9 ;      CG311      CG314      CG321       HGA2
    6     7     8    45	 9 ;      CG311      CG314      CG321       HGA2
   43     7     8     1	 9 ;       HGA1      CG314      CG321      SG3O2
   43     7     8    44	 9 ;       HGA1      CG314      CG321       HGA2
   43     7     8    45	 9 ;       HGA1      CG314      CG321       HGA2
    5     9    10    11	 9 ;      CG311      CG321     CG2R61     CG2R61
    5     9    10    16	 9 ;      CG311      CG321     CG2R61     CG2R61
   46     9    10    11	 9 ;       HGA2      CG321     CG2R61     CG2R61
   46     9    10    16	 9 ;       HGA2      CG321     CG2R61     CG2R61
   47     9    10    11	 9 ;       HGA2      CG321     CG2R61     CG2R61
   47     9    10    16	 9 ;       HGA2      CG321     CG2R61     CG2R61
   16    10    11    12	 9 ;     CG2R61     CG2R61     CG2R61     CG2R61
   16    10    11    48	 9 ;     CG2R61     CG2R61     CG2R61      HGR61
    9    10    11    12	 9 ;      CG321     CG2R61     CG2R61     CG2R61
    9    10    11    48	 9 ;      CG321     CG2R61     CG2R61      HGR61
   11    10    16    14	 9 ;     CG2R61     CG2R61     CG2R61     CG2R66
   11    10    16    49	 9 ;     CG2R61     CG2R61     CG2R61      HGR62
    9    10    16    14	 9 ;      CG321     CG2R61     CG2R61     CG2R66
    9    10    16    49	 9 ;      CG321     CG2R61     CG2R61      HGR62
   10    11    12    17	 9 ;     CG2R61     CG2R61     CG2R61      CG321
   10    11    12    13	 9 ;     CG2R61     CG2R61     CG2R61     CG2R61
   48    11    12    17	 9 ;      HGR61     CG2R61     CG2R61      CG321
   48    11    12    13	 9 ;      HGR61     CG2R61     CG2R61     CG2R61
   13    12    17    18	 9 ;     CG2R61     CG2R61      CG321      CG321
   13    12    17    50	 9 ;     CG2R61     CG2R61      CG321       HGA2
   13    12    17    51	 9 ;     CG2R61     CG2R61      CG321       HGA2
   11    12    17    18	 9 ;     CG2R61     CG2R61      CG321      CG321
   11    12    17    50	 9 ;     CG2R61     CG2R61      CG321       HGA2
   11    12    17    51	 9 ;     CG2R61     CG2R61      CG321       HGA2
   17    12    13    20	 9 ;      CG321     CG2R61     CG2R61      NG2S3
   17    12    13    14	 9 ;      CG321     CG2R61     CG2R61     CG2R66
   11    12    13    20	 9 ;     CG2R61     CG2R61     CG2R61      NG2S3
   11    12    13    14	 9 ;     CG2R61     CG2R61     CG2R61     CG2R66
   12    13    20    21	 9 ;     CG2R61     CG2R61      NG2S3       HGP4
   12    13    20    22	 9 ;     CG2R61     CG2R61      NG2S3       HGP4
   14    13    20    21	 9 ;     CG2R66     CG2R61      NG2S3       HGP4
   14    13    20    22	 9 ;     CG2R66     CG2R61      NG2S3       HGP4
   20    13    14    15	 9 ;      NG2S3     CG2R61     CG2R66       FGR1
   20    13    14    16	 9 ;      NG2S3     CG2R61     CG2R66     CG2R61
   12    13    14    15	 9 ;     CG2R61     CG2R61     CG2R66       FGR1
   12    13    14    16	 9 ;     CG2R61     CG2R61     CG2R66     CG2R61
   13    14    16    10	 9 ;     CG2R61     CG2R66     CG2R61     CG2R61
   13    14    16    49	 9 ;     CG2R61     CG2R66     CG2R61      HGR62
   15    14    16    10	 9 ;       FGR1     CG2R66     CG2R61     CG2R61
   15    14    16    49	 9 ;       FGR1     CG2R66     CG2R61      HGR62
   12    17    18    19	 9 ;     CG2R61      CG321      CG321      CG331
   12    17    18    52	 9 ;     CG2R61      CG321      CG321       HGA2
   12    17    18    53	 9 ;     CG2R61      CG321      CG321       HGA2
   50    17    18    19	 9 ;       HGA2      CG321      CG321      CG331
   50    17    18    52	 9 ;       HGA2      CG321      CG321       HGA2
   50    17    18    53	 9 ;       HGA2      CG321      CG321       HGA2
   51    17    18    19	 9 ;       HGA2      CG321      CG321      CG331
   51    17    18    52	 9 ;       HGA2      CG321      CG321       HGA2
   51    17    18    53	 9 ;       HGA2      CG321      CG321       HGA2
   17    18    19    60	 9 ;      CG321      CG321      CG331       HGA3
   17    18    19    61	 9 ;      CG321      CG321      CG331       HGA3
   17    18    19    62	 9 ;      CG321      CG321      CG331       HGA3
   52    18    19    60	 9 ;       HGA2      CG321      CG331       HGA3
   52    18    19    61	 9 ;       HGA2      CG321      CG331       HGA3
   52    18    19    62	 9 ;       HGA2      CG321      CG331       HGA3
   53    18    19    60	 9 ;       HGA2      CG321      CG331       HGA3
   53    18    19    61	 9 ;       HGA2      CG321      CG331       HGA3
   53    18    19    62	 9 ;       HGA2      CG321      CG331       HGA3
   26    25    28    29	 9 ;       HGP2      NG3P2      CG324     CG2R61
   26    25    28    54	 9 ;       HGP2      NG3P2      CG324       HGA2
   26    25    28    55	 9 ;       HGP2      NG3P2      CG324       HGA2
   27    25    28    29	 9 ;       HGP2      NG3P2      CG324     CG2R61
   27    25    28    54	 9 ;       HGP2      NG3P2      CG324       HGA2
   27    25    28    55	 9 ;       HGP2      NG3P2      CG324       HGA2
    7    25    28    29	 9 ;      CG314      NG3P2      CG324     CG2R61
    7    25    28    54	 9 ;      CG314      NG3P2      CG324       HGA2
    7    25    28    55	 9 ;      CG314      NG3P2      CG324       HGA2
   25    28    29    34	 9 ;      NG3P2      CG324     CG2R61     CG2R61
   25    28    29    30	 9 ;      NG3P2      CG324     CG2R61     CG2R61
   54    28    29    34	 9 ;       HGA2      CG324     CG2R61     CG2R61
   54    28    29    30	 9 ;       HGA2      CG324     CG2R61     CG2R61
   55    28    29    34	 9 ;       HGA2      CG324     CG2R61     CG2R61
   55    28    29    30	 9 ;       HGA2      CG324     CG2R61     CG2R61
   30    29    34    33	 9 ;     CG2R61     CG2R61     CG2R61     CG2R61
   30    29    34    59	 9 ;     CG2R61     CG2R61     CG2R61      HGR61
   28    29    34    33	 9 ;      CG324     CG2R61     CG2R61     CG2R61
   28    29    34    59	 9 ;      CG324     CG2R61     CG2R61      HGR61
   34    29    30    31	 9 ;     CG2R61     CG2R61     CG2R61     CG2R61
   34    29    30    56	 9 ;     CG2R61     CG2R61     CG2R61      HGR61
   28    29    30    31	 9 ;      CG324     CG2R61     CG2R61     CG2R61
   28    29    30    56	 9 ;      CG324     CG2R61     CG2R61      HGR61
   29    30    31    32	 9 ;     CG2R61     CG2R61     CG2R61     CG2R61
   29    30    31    35	 9 ;     CG2R61     CG2R61     CG2R61      CG301
   56    30    31    32	 9 ;      HGR61     CG2R61     CG2R61     CG2R61
   56    30    31    35	 9 ;      HGR61     CG2R61     CG2R61      CG301
   35    31    32    33	 9 ;      CG301     CG2R61     CG2R61     CG2R61
   35    31    32    57	 9 ;      CG301     CG2R61     CG2R61      HGR61
   30    31    32    33	 9 ;     CG2R61     CG2R61     CG2R61     CG2R61
   30    31    32    57	 9 ;     CG2R61     CG2R61     CG2R61      HGR61
   32    31    35    38	 9 ;     CG2R61     CG2R61      CG301      CG331
   32    31    35    36	 9 ;     CG2R61     CG2R61      CG301      CG331
   32    31    35    37	 9 ;     CG2R61     CG2R61      CG301      CG331
   30    31    35    38	 9 ;     CG2R61     CG2R61      CG301      CG331
   30    31    35    36	 9 ;     CG2R61     CG2R61      CG301      CG331
   30    31    35    37	 9 ;     CG2R61     CG2R61      CG301      CG331
   31    32    33    34	 9 ;     CG2R61     CG2R61     CG2R61     CG2R61
   31    32    33    58	 9 ;     CG2R61     CG2R61     CG2R61      HGR61
   57    32    33    34	 9 ;      HGR61     CG2R61     CG2R61     CG2R61
   57    32    33    58	 9 ;      HGR61     CG2R61     CG2R61      HGR61
   32    33    34    29	 9 ;     CG2R61     CG2R61     CG2R61     CG2R61
   32    33    34    59	 9 ;     CG2R61     CG2R61     CG2R61      HGR61
   58    33    34    29	 9 ;      HGR61     CG2R61     CG2R61     CG2R61
   58    33    34    59	 9 ;      HGR61     CG2R61     CG2R61      HGR61
   31    35    38    66	 9 ;     CG2R61      CG301      CG331       HGA3
   31    35    38    67	 9 ;     CG2R61      CG301      CG331       HGA3
   31    35    38    68	 9 ;     CG2R61      CG301      CG331       HGA3
   36    35    38    66	 9 ;      CG331      CG301      CG331       HGA3
   36    35    38    67	 9 ;      CG331      CG301      CG331       HGA3
   36    35    38    68	 9 ;      CG331      CG301      CG331       HGA3
   37    35    38    66	 9 ;      CG331      CG301      CG331       HGA3
   37    35    38    67	 9 ;      CG331      CG301      CG331       HGA3
   37    35    38    68	 9 ;      CG331      CG301      CG331       HGA3
   38    35    36    63	 9 ;      CG331      CG301      CG331       HGA3
   38    35    36    64	 9 ;      CG331      CG301      CG331       HGA3
   38    35    36    65	 9 ;      CG331      CG301      CG331       HGA3
   31    35    36    63	 9 ;     CG2R61      CG301      CG331       HGA3
   31    35    36    64	 9 ;     CG2R61      CG301      CG331       HGA3
   31    35    36    65	 9 ;     CG2R61      CG301      CG331       HGA3
   37    35    36    63	 9 ;      CG331      CG301      CG331       HGA3
   37    35    36    64	 9 ;      CG331      CG301      CG331       HGA3
   37    35    36    65	 9 ;      CG331      CG301      CG331       HGA3
   38    35    37    69	 9 ;      CG331      CG301      CG331       HGA3
   38    35    37    70	 9 ;      CG331      CG301      CG331       HGA3
   38    35    37    71	 9 ;      CG331      CG301      CG331       HGA3
   31    35    37    69	 9 ;     CG2R61      CG301      CG331       HGA3
   31    35    37    70	 9 ;     CG2R61      CG301      CG331       HGA3
   31    35    37    71	 9 ;     CG2R61      CG301      CG331       HGA3
   36    35    37    69	 9 ;      CG331      CG301      CG331       HGA3
   36    35    37    70	 9 ;      CG331      CG301      CG331       HGA3
   36    35    37    71	 9 ;      CG331      CG301      CG331       HGA3

[ dihedrals ]
;	ai	  aj	ak	  al funct			  c0			c1			  c2			c3
   20    21    22    13	 2

