Gromacs Runs On Most of All Computer Systems
   71
    1LIG      S    1  -1.988   0.525  -1.330
    1LIG     O1    2  -1.856   0.513  -1.271
    1LIG     O2    3  -2.106   0.522  -1.247
    1LIG     C1    4  -1.991   0.670  -1.433
    1LIG     C2    5  -1.885   0.667  -1.544
    1LIG     C3    6  -1.903   0.536  -1.626
    1LIG     C4    7  -1.893   0.402  -1.550
    1LIG     C5    8  -1.999   0.391  -1.443
    1LIG     C6    9  -1.744   0.706  -1.486
    1LIG     C7   10  -1.650   0.774  -1.581
    1LIG     C8   11  -1.519   0.725  -1.595
    1LIG     C9   12  -1.422   0.794  -1.670
    1LIG    C10   13  -1.456   0.914  -1.734
    1LIG    C11   14  -1.591   0.952  -1.732
    1LIG      F   15  -1.631   1.061  -1.801
    1LIG    C12   16  -1.687   0.885  -1.656
    1LIG    C13   17  -1.283   0.733  -1.677
    1LIG    C14   18  -1.231   0.674  -1.545
    1LIG    C15   19  -1.080   0.658  -1.536
    1LIG     N1   20  -1.366   0.984  -1.815
    1LIG     H1   21  -1.281   0.932  -1.837
    1LIG     H2   22  -1.406   1.030  -1.897
    1LIG     O3   23  -1.823   0.524  -1.743
    1LIG     H3   24  -1.782   0.607  -1.771
    1LIG     N2   25  -1.751   0.382  -1.501
    1LIG     H4   26  -1.701   0.471  -1.518
    1LIG     H5   27  -1.748   0.364  -1.400
    1LIG    C16   28  -1.666   0.273  -1.558
    1LIG    C17   29  -1.520   0.308  -1.551
    1LIG    C18   30  -1.454   0.299  -1.428
    1LIG    C19   31  -1.314   0.307  -1.420
    1LIG    C20   32  -1.243   0.324  -1.540
    1LIG    C21   33  -1.309   0.342  -1.662
    1LIG    C22   34  -1.448   0.338  -1.667
    1LIG    C23   35  -1.240   0.296  -1.286
    1LIG    C24   36  -1.214   0.433  -1.221
    1LIG    C25   37  -1.324   0.211  -1.189
    1LIG    C26   38  -1.103   0.228  -1.307
    1LIG    HC2   39  -2.090   0.678  -1.479
    1LIG    HC3   40  -1.975   0.758  -1.370
    1LIG     HC   41  -1.911   0.748  -1.611
    1LIG    HC1   42  -2.006   0.540  -1.663
    1LIG    HC4   43  -1.913   0.322  -1.622
    1LIG    HC5   44  -2.098   0.392  -1.490
    1LIG    HC6   45  -1.986   0.297  -1.389
    1LIG    HC7   46  -1.696   0.614  -1.451
    1LIG    HC8   47  -1.760   0.771  -1.400
    1LIG    HC9   48  -1.492   0.632  -1.547
    1LIG   HC10   49  -1.790   0.920  -1.654
    1LIG   HC11   50  -1.213   0.811  -1.708
    1LIG   HC12   51  -1.283   0.655  -1.752
    1LIG   HC13   52  -1.263   0.740  -1.464
    1LIG   HC14   53  -1.278   0.576  -1.530
    1LIG   HC15   54  -1.683   0.182  -1.501
    1LIG   HC16   55  -1.694   0.257  -1.662
    1LIG   HC17   56  -1.512   0.285  -1.338
    1LIG   HC18   57  -1.135   0.322  -1.538
    1LIG   HC19   58  -1.253   0.360  -1.752
    1LIG   HC20   59  -1.500   0.357  -1.760
    1LIG   HC21   60  -1.054   0.616  -1.439
    1LIG   HC22   61  -1.046   0.592  -1.615
    1LIG   HC23   62  -1.033   0.756  -1.547
    1LIG   HC24   63  -1.308   0.485  -1.204
    1LIG   HC25   64  -1.151   0.493  -1.286
    1LIG   HC26   65  -1.163   0.419  -1.125
    1LIG   HC27   66  -1.117   0.130  -1.353
    1LIG   HC28   67  -1.054   0.216  -1.210
    1LIG   HC29   68  -1.041   0.290  -1.371
    1LIG   HC30   69  -1.264   0.184  -1.102
    1LIG   HC31   70  -1.358   0.120  -1.239
    1LIG   HC32   71  -1.411   0.269  -1.156
   0.00000   0.00000   0.00000
