Green Red Orange Magenta Azure Cyan Skyblue
   67
    1LIG     C1    1  -1.374   0.721  -1.654
    1LIG     C2    2  -1.314   0.616  -1.755
    1LIG     N1    3  -1.222   0.526  -1.679
    1LIG     H1    4  -1.138   0.509  -1.736
    1LIG     H2    5  -1.184   0.580  -1.600
    1LIG     C3    6  -1.259   0.393  -1.621
    1LIG     C4    7  -1.203   0.272  -1.691
    1LIG     C5    8  -1.351   0.291  -1.681
    1LIG     C6    9  -1.256   0.404  -1.471
    1LIG     C7   10  -1.306   0.299  -1.392
    1LIG     C8   11  -1.280   0.293  -1.255
    1LIG     C9   12  -1.215   0.401  -1.194
    1LIG    C10   13  -1.167   0.507  -1.270
    1LIG    C11   14  -1.186   0.507  -1.408
    1LIG    C12   15  -1.313   0.168  -1.178
    1LIG    C13   16  -1.237   0.039  -1.223
    1LIG    C14   17  -1.086   0.062  -1.237
    1LIG    C15   18  -1.259  -0.069  -1.115
    1LIG    C16   19  -1.291  -0.016  -1.357
    1LIG     O1   20  -1.330   0.854  -1.678
    1LIG     H3   21  -1.236   0.860  -1.702
    1LIG    C17   22  -1.530   0.710  -1.636
    1LIG     N2   23  -1.587   0.805  -1.734
    1LIG    C18   24  -1.686   0.895  -1.705
    1LIG     O2   25  -1.730   0.914  -1.594
    1LIG    C19   26  -1.724   0.984  -1.823
    1LIG     H4   27  -1.554   0.802  -1.829
    1LIG    C20   28  -1.585   0.566  -1.667
    1LIG    C21   29  -1.699   0.519  -1.577
    1LIG    C22   30  -1.809   0.448  -1.629
    1LIG    C23   31  -1.918   0.419  -1.547
    1LIG     F1   32  -2.021   0.349  -1.598
    1LIG    C24   33  -1.925   0.463  -1.416
    1LIG    C25   34  -1.814   0.527  -1.364
    1LIG    C26   35  -1.698   0.547  -1.440
    1LIG     F2   36  -1.818   0.576  -1.239
    1LIG     HC   37  -1.333   0.694  -1.557
    1LIG    HC2   38  -1.395   0.558  -1.800
    1LIG    HC3   39  -1.259   0.669  -1.833
    1LIG    HC4   40  -1.153   0.283  -1.788
    1LIG    HC5   41  -1.161   0.195  -1.626
    1LIG    HC6   42  -1.410   0.226  -1.617
    1LIG    HC7   43  -1.400   0.321  -1.774
    1LIG    HC1   44  -1.365   0.221  -1.438
    1LIG    HC8   45  -1.203   0.403  -1.086
    1LIG    HC9   46  -1.115   0.589  -1.223
    1LIG   HC10   47  -1.145   0.588  -1.467
    1LIG   HC11   48  -1.290   0.185  -1.073
    1LIG   HC12   49  -1.420   0.149  -1.187
    1LIG   HC13   50  -1.558   0.740  -1.535
    1LIG   HC14   51  -1.502   0.495  -1.656
    1LIG   HC15   52  -1.619   0.562  -1.770
    1LIG   HC16   53  -1.808   0.415  -1.732
    1LIG   HC17   54  -2.014   0.449  -1.357
    1LIG   HC18   55  -1.608   0.583  -1.393
    1LIG   HC19   56  -1.067   0.138  -1.313
    1LIG   HC20   57  -1.045   0.096  -1.141
    1LIG   HC21   58  -1.037  -0.031  -1.266
    1LIG   HC22   59  -1.276   0.059  -1.435
    1LIG   HC23   60  -1.237  -0.107  -1.383
    1LIG   HC24   61  -1.397  -0.038  -1.347
    1LIG   HC25   62  -1.802   1.053  -1.793
    1LIG   HC26   63  -1.759   0.922  -1.906
    1LIG   HC27   64  -1.636   1.041  -1.855
    1LIG   HC28   65  -1.365  -0.087  -1.103
    1LIG   HC29   66  -1.217  -0.034  -1.020
    1LIG   HC30   67  -1.209  -0.161  -1.145
   0.00000   0.00000   0.00000
