GROningen Mixture of Alchemy and Childrens' Stories
   66
    1LIG     C1    1  -1.729   0.467  -1.475
    1LIG     N1    2  -1.697   0.581  -1.380
    1LIG     HN    3  -1.644   0.575  -1.293
    1LIG     C2    4  -1.749   0.687  -1.432
    1LIG     N2    5  -1.808   0.672  -1.551
    1LIG     C3    6  -1.905   0.762  -1.611
    1LIG     C4    7  -1.788   0.544  -1.595
    1LIG     O1    8  -1.823   0.499  -1.703
    1LIG     C5    9  -1.600   0.387  -1.507
    1LIG     C6   10  -1.480   0.418  -1.441
    1LIG     C7   11  -1.360   0.348  -1.466
    1LIG     C8   12  -1.357   0.245  -1.559
    1LIG     C9   13  -1.477   0.211  -1.624
    1LIG    C10   14  -1.596   0.280  -1.597
    1LIG     O2   15  -1.246   0.176  -1.600
    1LIG    C11   16  -1.145   0.152  -1.502
    1LIG    C12   17  -1.096   0.007  -1.506
    1LIG    C13   18  -0.977  -0.025  -1.414
    1LIG    C14   19  -0.872   0.084  -1.406
    1LIG    C15   20  -1.845   0.380  -1.408
    1LIG    C16   21  -1.800   0.323  -1.270
    1LIG    C17   22  -1.912   0.239  -1.205
    1LIG    C18   23  -1.947   0.123  -1.298
    1LIG    C19   24  -2.036   0.327  -1.182
    1LIG    C20   25  -1.998   0.177  -1.433
    1LIG    C21   26  -1.887   0.261  -1.498
    1LIG    C22   27  -2.122   0.265  -1.410
    1LIG    C23   28  -2.086   0.381  -1.316
    1LIG    C24   29  -1.975   0.465  -1.381
    1LIG     N3   30  -1.745   0.807  -1.370
    1LIG     H1   31  -1.653   0.825  -1.329
    1LIG     H2   32  -1.780   0.885  -1.422
    1LIG    HN2   33  -1.782   0.563  -1.330
    1LIG     HC   34  -1.654   0.709  -1.481
    1LIG    HC1   35  -1.935   0.723  -1.708
    1LIG    HC2   36  -1.992   0.770  -1.546
    1LIG    HC3   37  -1.860   0.860  -1.624
    1LIG    HC4   38  -1.479   0.498  -1.368
    1LIG    HC5   39  -1.270   0.374  -1.412
    1LIG    HC6   40  -1.477   0.130  -1.695
    1LIG    HC7   41  -1.687   0.250  -1.648
    1LIG    HC8   42  -1.060   0.219  -1.522
    1LIG    HC9   43  -1.184   0.174  -1.403
    1LIG   HC10   44  -1.179  -0.057  -1.477
    1LIG   HC11   45  -1.068  -0.017  -1.608
    1LIG   HC12   46  -0.929  -0.116  -1.451
    1LIG   HC13   47  -1.015  -0.044  -1.314
    1LIG   HC14   48  -0.779   0.042  -1.369
    1LIG   HC15   49  -0.906   0.162  -1.338
    1LIG   HC16   50  -0.856   0.127  -1.505
    1LIG   HC17   51  -1.775   0.406  -1.203
    1LIG   HC18   52  -1.712   0.261  -1.283
    1LIG   HC19   53  -1.877   0.200  -1.109
    1LIG   HC20   54  -2.025   0.062  -1.252
    1LIG   HC21   55  -1.859   0.061  -1.315
    1LIG   HC22   56  -2.114   0.267  -1.136
    1LIG   HC23   57  -2.010   0.410  -1.117
    1LIG   HC24   58  -2.024   0.094  -1.498
    1LIG   HC25   59  -1.924   0.300  -1.593
    1LIG   HC26   60  -1.801   0.197  -1.516
    1LIG   HC27   61  -2.201   0.205  -1.364
    1LIG   HC28   62  -2.157   0.304  -1.505
    1LIG   HC29   63  -2.174   0.444  -1.300
    1LIG   HC30   64  -2.011   0.504  -1.477
    1LIG   HC31   65  -1.950   0.549  -1.316
    1LIG    HN1   66  -1.807   0.798  -1.291
   0.00000   0.00000   0.00000
