Green Red Orange Magenta Azure Cyan Skyblue
   66
    1LIG     O1    1  -1.563   0.328  -1.604
    1LIG     C1    2  -1.457   0.418  -1.564
    1LIG     C2    3  -1.382   0.564  -1.562
    1LIG     N1    4  -1.399   0.635  -1.689
    1LIG     C3    5  -1.436   0.770  -1.681
    1LIG     O2    6  -1.381   0.853  -1.611
    1LIG     C4    7  -1.571   0.787  -1.740
    1LIG     C5    8  -1.587   0.766  -1.877
    1LIG     C6    9  -1.700   0.697  -1.923
    1LIG     C7   10  -1.791   0.644  -1.829
    1LIG     C8   11  -1.777   0.675  -1.692
    1LIG     C9   12  -1.672   0.753  -1.648
    1LIG    C10   13  -1.864   0.612  -1.589
    1LIG     O3   14  -1.956   0.673  -1.538
    1LIG     N2   15  -1.827   0.484  -1.555
    1LIG    C11   16  -1.914   0.380  -1.498
    1LIG    C12   17  -1.976   0.291  -1.610
    1LIG    C13   18  -1.874   0.275  -1.723
    1LIG    C14   19  -1.752   0.224  -1.695
    1LIG    C15   20  -1.617   0.289  -1.730
    1LIG    C16   21  -1.721   0.674  -2.070
    1LIG     H1   22  -1.455   0.582  -1.755
    1LIG     H2   23  -1.744   0.447  -1.599
    1LIG    C17   24  -1.234   0.593  -1.508
    1LIG    C18   25  -1.183   0.544  -1.370
    1LIG     N3   26  -1.148   0.392  -1.376
    1LIG     H3   27  -1.136   0.363  -1.474
    1LIG     H4   28  -1.054   0.381  -1.333
    1LIG    C19   29  -1.241   0.293  -1.310
    1LIG    C20   30  -1.232   0.150  -1.362
    1LIG    C21   31  -1.255   0.120  -1.497
    1LIG    C22   32  -1.234  -0.012  -1.549
    1LIG    C23   33  -1.193  -0.112  -1.463
    1LIG    C24   34  -1.172  -0.085  -1.329
    1LIG    C25   35  -1.191   0.045  -1.278
    1LIG     O4   36  -1.135   0.561  -1.605
    1LIG     H5   37  -1.107   0.647  -1.642
    1LIG    HC2   38  -1.466   0.405  -1.456
    1LIG    HC3   39  -1.371   0.354  -1.583
    1LIG     HC   40  -1.444   0.622  -1.494
    1LIG    HC1   41  -1.513   0.802  -1.947
    1LIG    HC4   42  -1.871   0.580  -1.862
    1LIG    HC5   43  -1.667   0.788  -1.546
    1LIG    HC6   44  -1.994   0.428  -1.442
    1LIG    HC7   45  -1.855   0.317  -1.431
    1LIG    HC8   46  -2.067   0.339  -1.649
    1LIG    HC9   47  -2.001   0.193  -1.569
    1LIG   HC10   48  -1.899   0.305  -1.824
    1LIG   HC11   49  -1.749   0.129  -1.644
    1LIG   HC12   50  -1.551   0.217  -1.780
    1LIG   HC13   51  -1.632   0.376  -1.794
    1LIG   HC14   52  -1.814   0.619  -2.086
    1LIG   HC15   53  -1.726   0.770  -2.121
    1LIG   HC16   54  -1.637   0.616  -2.110
    1LIG   HC17   55  -1.230   0.702  -1.500
    1LIG   HC18   56  -1.093   0.600  -1.343
    1LIG   HC19   57  -1.260   0.560  -1.295
    1LIG   HC20   58  -1.219   0.292  -1.204
    1LIG   HC21   59  -1.343   0.328  -1.324
    1LIG   HC22   60  -1.288   0.198  -1.564
    1LIG   HC23   61  -1.251  -0.033  -1.653
    1LIG   HC24   62  -1.177  -0.212  -1.502
    1LIG   HC25   63  -1.141  -0.164  -1.262
    1LIG   HC26   64  -1.175   0.065  -1.173
    1LIG    H33   65  -1.912   0.175  -1.743
    1LIG    H34   66  -1.752   0.172  -1.791
   0.00000   0.00000   0.00000
