; Created by cgenff_charmm2gmx.py

[ moleculetype ]
; Name			   nrexcl
LIG				 3

[ atoms ]
;	 nr		  type	resnr residue  atom   cgnr	   charge		mass  typeB    chargeB		massB
; residue	 1 LIG rtp LIG q	qsum
     1      OG301      1    LIG     O1      1     -0.347     15.999   ;
     2      CG321      1    LIG     C1      2      0.032     12.011   ;
     3      CG311      1    LIG     C2      3     -0.022     12.011   ;
     4      NG2S1      1    LIG     N1      4     -0.224     14.007   ;
     5      CG2O1      1    LIG     C3      5      0.302     12.011   ;
     6      OG2D1      1    LIG     O2      6     -0.463     15.999   ;
     7     CG2R61      1    LIG     C4      7     -0.120     12.011   ;
     8     CG2R61      1    LIG     C5      8     -0.065     12.011   ;
     9     CG2R61      1    LIG     C6      9      0.038     12.011   ;
    10     CG2R61      1    LIG     C7     10     -0.065     12.011   ;
    11     CG2R61      1    LIG     C8     11     -0.121     12.011   ;
    12     CG2R61      1    LIG     C9     12     -0.004     12.011   ;
    13      CG2O1      1    LIG    C10     13      0.347     12.011   ;
    14      OG2D1      1    LIG     O3     14     -0.467     15.999   ;
    15      NG2S1      1    LIG     N2     15     -0.348     14.007   ;
    16      CG321      1    LIG    C11     16     -0.018     12.011   ;
    17      CG321      1    LIG    C12     17     -0.182     12.011   ;
    18      CG321      1    LIG    C13     18     -0.174     12.011   ;
    19      CG321      1    LIG    C14     19     -0.179     12.011   ;
    20      CG321      1    LIG    C15     20      0.001     12.011   ;
    21      CG331      1    LIG    C16     21     -0.264     12.011   ;
    22       HGP1      1    LIG     H1     22      0.262      1.008   ;
    23       HGP1      1    LIG     H2     23      0.298      1.008   ;
    24      CG311      1    LIG    C17     24      0.117     12.011   ;
    25      CG324      1    LIG    C18     25      0.178     12.011   ;
    26      NG3P2      1    LIG     N3     26     -0.444     14.007   ;
    27       HGP2      1    LIG     H3     27      0.348      1.008   ;
    28       HGP2      1    LIG     H4     28      0.348      1.008   ;
    29      CG324      1    LIG    C19     29      0.171     12.011   ;
    30     CG2R61      1    LIG    C20     30      0.033     12.011   ;
    31     CG2R61      1    LIG    C21     31     -0.119     12.011   ;
    32     CG2R61      1    LIG    C22     32     -0.111     12.011   ;
    33     CG2R61      1    LIG    C23     33     -0.116     12.011   ;
    34     CG2R61      1    LIG    C24     34     -0.111     12.011   ;
    35     CG2R61      1    LIG    C25     35     -0.119     12.011   ;
    36      OG311      1    LIG     O4     36     -0.625     15.999   ;
    37       HGP1      1    LIG     H5     37      0.415      1.008   ;
    38       HGA2      1    LIG    HC2     38      0.090      1.008   ;
    39       HGA2      1    LIG    HC3     39      0.090      1.008   ;
    40       HGA1      1    LIG     HC     40      0.090      1.008   ;
    41      HGR61      1    LIG    HC1     41      0.116      1.008   ;
    42      HGR61      1    LIG    HC4     42      0.116      1.008   ;
    43      HGR61      1    LIG    HC5     43      0.116      1.008   ;
    44       HGA2      1    LIG    HC6     44      0.090      1.008   ;
    45       HGA2      1    LIG    HC7     45      0.090      1.008   ;
    46       HGA2      1    LIG    HC8     46      0.090      1.008   ;
    47       HGA2      1    LIG    HC9     47      0.090      1.008   ;
    48       HGA2      1    LIG   HC10     48      0.090      1.008   ;
    49       HGA2      1    LIG   HC11     49      0.090      1.008   ;
    50       HGA2      1    LIG   HC12     50      0.090      1.008   ;
    51       HGA2      1    LIG   HC13     51      0.090      1.008   ;
    52       HGA3      1    LIG   HC14     52      0.090      1.008   ;
    53       HGA3      1    LIG   HC15     53      0.090      1.008   ;
    54       HGA3      1    LIG   HC16     54      0.090      1.008   ;
    55       HGA1      1    LIG   HC17     55      0.090      1.008   ;
    56       HGA2      1    LIG   HC18     56      0.090      1.008   ;
    57       HGA2      1    LIG   HC19     57      0.090      1.008   ;
    58       HGA2      1    LIG   HC20     58      0.090      1.008   ;
    59       HGA2      1    LIG   HC21     59      0.090      1.008   ;
    60      HGR61      1    LIG   HC22     60      0.116      1.008   ;
    61      HGR61      1    LIG   HC23     61      0.116      1.008   ;
    62      HGR61      1    LIG   HC24     62      0.116      1.008   ;
    63      HGR61      1    LIG   HC25     63      0.116      1.008   ;
    64      HGR61      1    LIG   HC26     64      0.116      1.008   ;
    65       HGA2      1    LIG    H33     65      0.090      1.008   ;
    66       HGA2      1    LIG    H34     66      0.090      1.008   ;

[ bonds ]
;	ai	  aj funct			  c0			c1			  c2			c3
    1     2	 1 ;       OG301      CG321
    1    20	 1 ;       OG301      CG321
    2     3	 1 ;       CG321      CG311
    2    38	 1 ;       CG321       HGA2
    2    39	 1 ;       CG321       HGA2
    3    24	 1 ;       CG311      CG311
    3     4	 1 ;       CG311      NG2S1
    3    40	 1 ;       CG311       HGA1
    4     5	 1 ;       NG2S1      CG2O1
    4    22	 1 ;       NG2S1       HGP1
    5     6	 1 ;       CG2O1      OG2D1
    5     7	 1 ;       CG2O1     CG2R61
    7     8	 1 ;      CG2R61     CG2R61
    7    12	 1 ;      CG2R61     CG2R61
    8     9	 1 ;      CG2R61     CG2R61
    8    41	 1 ;      CG2R61      HGR61
    9    21	 1 ;      CG2R61      CG331
    9    10	 1 ;      CG2R61     CG2R61
   10    11	 1 ;      CG2R61     CG2R61
   10    42	 1 ;      CG2R61      HGR61
   11    12	 1 ;      CG2R61     CG2R61
   11    13	 1 ;      CG2R61      CG2O1
   12    43	 1 ;      CG2R61      HGR61
   13    15	 1 ;       CG2O1      NG2S1
   13    14	 1 ;       CG2O1      OG2D1
   15    23	 1 ;       NG2S1       HGP1
   15    16	 1 ;       NG2S1      CG321
   16    17	 1 ;       CG321      CG321
   16    44	 1 ;       CG321       HGA2
   16    45	 1 ;       CG321       HGA2
   17    18	 1 ;       CG321      CG321
   17    46	 1 ;       CG321       HGA2
   17    47	 1 ;       CG321       HGA2
   18    19	 1 ;       CG321      CG321
   18    48	 1 ;       CG321       HGA2
   18    65	 1 ;       CG321       HGA2
   19    20	 1 ;       CG321      CG321
   19    49	 1 ;       CG321       HGA2
   19    66	 1 ;       CG321       HGA2
   20    50	 1 ;       CG321       HGA2
   20    51	 1 ;       CG321       HGA2
   21    52	 1 ;       CG331       HGA3
   21    53	 1 ;       CG331       HGA3
   21    54	 1 ;       CG331       HGA3
   24    36	 1 ;       CG311      OG311
   24    25	 1 ;       CG311      CG324
   24    55	 1 ;       CG311       HGA1
   25    26	 1 ;       CG324      NG3P2
   25    56	 1 ;       CG324       HGA2
   25    57	 1 ;       CG324       HGA2
   26    27	 1 ;       NG3P2       HGP2
   26    28	 1 ;       NG3P2       HGP2
   26    29	 1 ;       NG3P2      CG324
   29    30	 1 ;       CG324     CG2R61
   29    58	 1 ;       CG324       HGA2
   29    59	 1 ;       CG324       HGA2
   30    31	 1 ;      CG2R61     CG2R61
   30    35	 1 ;      CG2R61     CG2R61
   31    32	 1 ;      CG2R61     CG2R61
   31    60	 1 ;      CG2R61      HGR61
   32    33	 1 ;      CG2R61     CG2R61
   32    61	 1 ;      CG2R61      HGR61
   33    34	 1 ;      CG2R61     CG2R61
   33    62	 1 ;      CG2R61      HGR61
   34    35	 1 ;      CG2R61     CG2R61
   34    63	 1 ;      CG2R61      HGR61
   35    64	 1 ;      CG2R61      HGR61
   36    37	 1 ;       OG311       HGP1

[ pairs ]
;	ai	  aj funct			  c0			c1			  c2			c3
    1    24	 1
    1     4	 1
    1    40	 1
    1    18	 1
    1    49	 1
    1    66	 1
    2    19	 1
    2    50	 1
    2    51	 1
    2    36	 1
    2    25	 1
    2    55	 1
    2     5	 1
    2    22	 1
    3    20	 1
    3     6	 1
    3     7	 1
    3    37	 1
    3    26	 1
    3    56	 1
    3    57	 1
    4    38	 1
    4    39	 1
    4    36	 1
    4    25	 1
    4    55	 1
    4     8	 1
    4    12	 1
    5    24	 1
    5    40	 1
    5     9	 1
    5    41	 1
    5    11	 1
    5    43	 1
    6    22	 1
    6     8	 1
    6    12	 1
    7    22	 1
    7    21	 1
    7    10	 1
    7    13	 1
    8    11	 1
    8    43	 1
    8    52	 1
    8    53	 1
    8    54	 1
    8    42	 1
    9    12	 1
    9    13	 1
   10    41	 1
   10    52	 1
   10    53	 1
   10    54	 1
   10    43	 1
   10    15	 1
   10    14	 1
   11    21	 1
   11    23	 1
   11    16	 1
   12    41	 1
   12    42	 1
   12    15	 1
   12    14	 1
   13    42	 1
   13    43	 1
   13    17	 1
   13    44	 1
   13    45	 1
   14    23	 1
   14    16	 1
   15    18	 1
   15    46	 1
   15    47	 1
   16    19	 1
   16    48	 1
   16    65	 1
   17    23	 1
   17    20	 1
   17    49	 1
   17    66	 1
   18    44	 1
   18    45	 1
   18    50	 1
   18    51	 1
   19    46	 1
   19    47	 1
   20    38	 1
   20    39	 1
   20    48	 1
   20    65	 1
   21    41	 1
   21    42	 1
   22    24	 1
   22    40	 1
   23    44	 1
   23    45	 1
   24    38	 1
   24    39	 1
   24    27	 1
   24    28	 1
   24    29	 1
   25    40	 1
   25    37	 1
   25    30	 1
   25    58	 1
   25    59	 1
   26    36	 1
   26    55	 1
   26    31	 1
   26    35	 1
   27    56	 1
   27    57	 1
   27    30	 1
   27    58	 1
   27    59	 1
   28    56	 1
   28    57	 1
   28    30	 1
   28    58	 1
   28    59	 1
   29    56	 1
   29    57	 1
   29    32	 1
   29    60	 1
   29    34	 1
   29    64	 1
   30    33	 1
   30    61	 1
   30    63	 1
   31    58	 1
   31    59	 1
   31    34	 1
   31    64	 1
   31    62	 1
   32    35	 1
   32    63	 1
   33    60	 1
   33    64	 1
   34    61	 1
   35    58	 1
   35    59	 1
   35    60	 1
   35    62	 1
   36    40	 1
   36    56	 1
   36    57	 1
   37    55	 1
   38    40	 1
   39    40	 1
   40    55	 1
   44    46	 1
   44    47	 1
   45    46	 1
   45    47	 1
   46    48	 1
   46    65	 1
   47    48	 1
   47    65	 1
   48    49	 1
   48    66	 1
   49    65	 1
   49    50	 1
   49    51	 1
   50    66	 1
   51    66	 1
   55    56	 1
   55    57	 1
   60    61	 1
   61    62	 1
   62    63	 1
   63    64	 1
   65    66	 1

[ angles ]
;	ai	  aj	ak funct			c0			  c1			c2			  c3
    2     1    20	5 ;      CG321      OG301      CG321
    3     2     1	5 ;      CG311      CG321      OG301
    3     2    38	5 ;      CG311      CG321       HGA2
    3     2    39	5 ;      CG311      CG321       HGA2
    1     2    38	5 ;      OG301      CG321       HGA2
    1     2    39	5 ;      OG301      CG321       HGA2
   38     2    39	5 ;       HGA2      CG321       HGA2
   24     3     4	5 ;      CG311      CG311      NG2S1
   24     3     2	5 ;      CG311      CG311      CG321
   24     3    40	5 ;      CG311      CG311       HGA1
    4     3     2	5 ;      NG2S1      CG311      CG321
    4     3    40	5 ;      NG2S1      CG311       HGA1
    2     3    40	5 ;      CG321      CG311       HGA1
    5     4    22	5 ;      CG2O1      NG2S1       HGP1
    5     4     3	5 ;      CG2O1      NG2S1      CG311
   22     4     3	5 ;       HGP1      NG2S1      CG311
    6     5     4	5 ;      OG2D1      CG2O1      NG2S1
    6     5     7	5 ;      OG2D1      CG2O1     CG2R61
    4     5     7	5 ;      NG2S1      CG2O1     CG2R61
    5     7     8	5 ;      CG2O1     CG2R61     CG2R61
    5     7    12	5 ;      CG2O1     CG2R61     CG2R61
    8     7    12	5 ;     CG2R61     CG2R61     CG2R61
    7     8     9	5 ;     CG2R61     CG2R61     CG2R61
    7     8    41	5 ;     CG2R61     CG2R61      HGR61
    9     8    41	5 ;     CG2R61     CG2R61      HGR61
    8     9    21	5 ;     CG2R61     CG2R61      CG331
    8     9    10	5 ;     CG2R61     CG2R61     CG2R61
   21     9    10	5 ;      CG331     CG2R61     CG2R61
    9    10    11	5 ;     CG2R61     CG2R61     CG2R61
    9    10    42	5 ;     CG2R61     CG2R61      HGR61
   11    10    42	5 ;     CG2R61     CG2R61      HGR61
   12    11    10	5 ;     CG2R61     CG2R61     CG2R61
   12    11    13	5 ;     CG2R61     CG2R61      CG2O1
   10    11    13	5 ;     CG2R61     CG2R61      CG2O1
    7    12    11	5 ;     CG2R61     CG2R61     CG2R61
    7    12    43	5 ;     CG2R61     CG2R61      HGR61
   11    12    43	5 ;     CG2R61     CG2R61      HGR61
   11    13    15	5 ;     CG2R61      CG2O1      NG2S1
   11    13    14	5 ;     CG2R61      CG2O1      OG2D1
   15    13    14	5 ;      NG2S1      CG2O1      OG2D1
   23    15    13	5 ;       HGP1      NG2S1      CG2O1
   23    15    16	5 ;       HGP1      NG2S1      CG321
   13    15    16	5 ;      CG2O1      NG2S1      CG321
   15    16    17	5 ;      NG2S1      CG321      CG321
   15    16    44	5 ;      NG2S1      CG321       HGA2
   15    16    45	5 ;      NG2S1      CG321       HGA2
   17    16    44	5 ;      CG321      CG321       HGA2
   17    16    45	5 ;      CG321      CG321       HGA2
   44    16    45	5 ;       HGA2      CG321       HGA2
   18    17    16	5 ;      CG321      CG321      CG321
   18    17    46	5 ;      CG321      CG321       HGA2
   18    17    47	5 ;      CG321      CG321       HGA2
   16    17    46	5 ;      CG321      CG321       HGA2
   16    17    47	5 ;      CG321      CG321       HGA2
   46    17    47	5 ;       HGA2      CG321       HGA2
   19    18    17	5 ;      CG321      CG321      CG321
   19    18    48	5 ;      CG321      CG321       HGA2
   19    18    65	5 ;      CG321      CG321       HGA2
   17    18    48	5 ;      CG321      CG321       HGA2
   17    18    65	5 ;      CG321      CG321       HGA2
   48    18    65	5 ;       HGA2      CG321       HGA2
   20    19    18	5 ;      CG321      CG321      CG321
   20    19    49	5 ;      CG321      CG321       HGA2
   20    19    66	5 ;      CG321      CG321       HGA2
   18    19    49	5 ;      CG321      CG321       HGA2
   18    19    66	5 ;      CG321      CG321       HGA2
   49    19    66	5 ;       HGA2      CG321       HGA2
    1    20    19	5 ;      OG301      CG321      CG321
    1    20    50	5 ;      OG301      CG321       HGA2
    1    20    51	5 ;      OG301      CG321       HGA2
   19    20    50	5 ;      CG321      CG321       HGA2
   19    20    51	5 ;      CG321      CG321       HGA2
   50    20    51	5 ;       HGA2      CG321       HGA2
    9    21    52	5 ;     CG2R61      CG331       HGA3
    9    21    53	5 ;     CG2R61      CG331       HGA3
    9    21    54	5 ;     CG2R61      CG331       HGA3
   52    21    53	5 ;       HGA3      CG331       HGA3
   52    21    54	5 ;       HGA3      CG331       HGA3
   53    21    54	5 ;       HGA3      CG331       HGA3
   36    24    25	5 ;      OG311      CG311      CG324
   36    24     3	5 ;      OG311      CG311      CG311
   36    24    55	5 ;      OG311      CG311       HGA1
   25    24     3	5 ;      CG324      CG311      CG311
   25    24    55	5 ;      CG324      CG311       HGA1
    3    24    55	5 ;      CG311      CG311       HGA1
   24    25    26	5 ;      CG311      CG324      NG3P2
   24    25    56	5 ;      CG311      CG324       HGA2
   24    25    57	5 ;      CG311      CG324       HGA2
   26    25    56	5 ;      NG3P2      CG324       HGA2
   26    25    57	5 ;      NG3P2      CG324       HGA2
   56    25    57	5 ;       HGA2      CG324       HGA2
   27    26    28	5 ;       HGP2      NG3P2       HGP2
   27    26    25	5 ;       HGP2      NG3P2      CG324
   27    26    29	5 ;       HGP2      NG3P2      CG324
   28    26    25	5 ;       HGP2      NG3P2      CG324
   28    26    29	5 ;       HGP2      NG3P2      CG324
   25    26    29	5 ;      CG324      NG3P2      CG324
   26    29    30	5 ;      NG3P2      CG324     CG2R61
   26    29    58	5 ;      NG3P2      CG324       HGA2
   26    29    59	5 ;      NG3P2      CG324       HGA2
   30    29    58	5 ;     CG2R61      CG324       HGA2
   30    29    59	5 ;     CG2R61      CG324       HGA2
   58    29    59	5 ;       HGA2      CG324       HGA2
   31    30    29	5 ;     CG2R61     CG2R61      CG324
   31    30    35	5 ;     CG2R61     CG2R61     CG2R61
   29    30    35	5 ;      CG324     CG2R61     CG2R61
   32    31    30	5 ;     CG2R61     CG2R61     CG2R61
   32    31    60	5 ;     CG2R61     CG2R61      HGR61
   30    31    60	5 ;     CG2R61     CG2R61      HGR61
   31    32    33	5 ;     CG2R61     CG2R61     CG2R61
   31    32    61	5 ;     CG2R61     CG2R61      HGR61
   33    32    61	5 ;     CG2R61     CG2R61      HGR61
   32    33    34	5 ;     CG2R61     CG2R61     CG2R61
   32    33    62	5 ;     CG2R61     CG2R61      HGR61
   34    33    62	5 ;     CG2R61     CG2R61      HGR61
   33    34    35	5 ;     CG2R61     CG2R61     CG2R61
   33    34    63	5 ;     CG2R61     CG2R61      HGR61
   35    34    63	5 ;     CG2R61     CG2R61      HGR61
   30    35    34	5 ;     CG2R61     CG2R61     CG2R61
   30    35    64	5 ;     CG2R61     CG2R61      HGR61
   34    35    64	5 ;     CG2R61     CG2R61      HGR61
   37    36    24	5 ;       HGP1      OG311      CG311

[ dihedrals ]
;	ai	  aj	ak	  al funct			  c0			c1			  c2			c3			  c4			c5
   20     1     2     3	 9 ;      CG321      OG301      CG321      CG311
   20     1     2    38	 9 ;      CG321      OG301      CG321       HGA2
   20     1     2    39	 9 ;      CG321      OG301      CG321       HGA2
    2     1    20    19	 9 ;      CG321      OG301      CG321      CG321
    2     1    20    50	 9 ;      CG321      OG301      CG321       HGA2
    2     1    20    51	 9 ;      CG321      OG301      CG321       HGA2
    1     2     3    24	 9 ;      OG301      CG321      CG311      CG311
    1     2     3     4	 9 ;      OG301      CG321      CG311      NG2S1
    1     2     3    40	 9 ;      OG301      CG321      CG311       HGA1
   38     2     3    24	 9 ;       HGA2      CG321      CG311      CG311
   38     2     3     4	 9 ;       HGA2      CG321      CG311      NG2S1
   38     2     3    40	 9 ;       HGA2      CG321      CG311       HGA1
   39     2     3    24	 9 ;       HGA2      CG321      CG311      CG311
   39     2     3     4	 9 ;       HGA2      CG321      CG311      NG2S1
   39     2     3    40	 9 ;       HGA2      CG321      CG311       HGA1
    4     3    24    36	 9 ;      NG2S1      CG311      CG311      OG311
    4     3    24    25	 9 ;      NG2S1      CG311      CG311      CG324
    4     3    24    55	 9 ;      NG2S1      CG311      CG311       HGA1
    2     3    24    36	 9 ;      CG321      CG311      CG311      OG311
    2     3    24    25	 9 ;      CG321      CG311      CG311      CG324
    2     3    24    55	 9 ;      CG321      CG311      CG311       HGA1
   40     3    24    36	 9 ;       HGA1      CG311      CG311      OG311
   40     3    24    25	 9 ;       HGA1      CG311      CG311      CG324
   40     3    24    55	 9 ;       HGA1      CG311      CG311       HGA1
   24     3     4     5	 9 ;      CG311      CG311      NG2S1      CG2O1
   24     3     4    22	 9 ;      CG311      CG311      NG2S1       HGP1
    2     3     4     5	 9 ;      CG321      CG311      NG2S1      CG2O1
    2     3     4    22	 9 ;      CG321      CG311      NG2S1       HGP1
   40     3     4     5	 9 ;       HGA1      CG311      NG2S1      CG2O1
   40     3     4    22	 9 ;       HGA1      CG311      NG2S1       HGP1
   22     4     5     6	 9 ;       HGP1      NG2S1      CG2O1      OG2D1
   22     4     5     7	 9 ;       HGP1      NG2S1      CG2O1     CG2R61
    3     4     5     6	 9 ;      CG311      NG2S1      CG2O1      OG2D1
    3     4     5     7	 9 ;      CG311      NG2S1      CG2O1     CG2R61
    6     5     7     8	 9 ;      OG2D1      CG2O1     CG2R61     CG2R61
    6     5     7    12	 9 ;      OG2D1      CG2O1     CG2R61     CG2R61
    4     5     7     8	 9 ;      NG2S1      CG2O1     CG2R61     CG2R61
    4     5     7    12	 9 ;      NG2S1      CG2O1     CG2R61     CG2R61
    5     7     8     9	 9 ;      CG2O1     CG2R61     CG2R61     CG2R61
    5     7     8    41	 9 ;      CG2O1     CG2R61     CG2R61      HGR61
   12     7     8     9	 9 ;     CG2R61     CG2R61     CG2R61     CG2R61
   12     7     8    41	 9 ;     CG2R61     CG2R61     CG2R61      HGR61
    5     7    12    11	 9 ;      CG2O1     CG2R61     CG2R61     CG2R61
    5     7    12    43	 9 ;      CG2O1     CG2R61     CG2R61      HGR61
    8     7    12    11	 9 ;     CG2R61     CG2R61     CG2R61     CG2R61
    8     7    12    43	 9 ;     CG2R61     CG2R61     CG2R61      HGR61
    7     8     9    21	 9 ;     CG2R61     CG2R61     CG2R61      CG331
    7     8     9    10	 9 ;     CG2R61     CG2R61     CG2R61     CG2R61
   41     8     9    21	 9 ;      HGR61     CG2R61     CG2R61      CG331
   41     8     9    10	 9 ;      HGR61     CG2R61     CG2R61     CG2R61
    8     9    21    52	 9 ;     CG2R61     CG2R61      CG331       HGA3
    8     9    21    53	 9 ;     CG2R61     CG2R61      CG331       HGA3
    8     9    21    54	 9 ;     CG2R61     CG2R61      CG331       HGA3
   10     9    21    52	 9 ;     CG2R61     CG2R61      CG331       HGA3
   10     9    21    53	 9 ;     CG2R61     CG2R61      CG331       HGA3
   10     9    21    54	 9 ;     CG2R61     CG2R61      CG331       HGA3
    8     9    10    11	 9 ;     CG2R61     CG2R61     CG2R61     CG2R61
    8     9    10    42	 9 ;     CG2R61     CG2R61     CG2R61      HGR61
   21     9    10    11	 9 ;      CG331     CG2R61     CG2R61     CG2R61
   21     9    10    42	 9 ;      CG331     CG2R61     CG2R61      HGR61
    9    10    11    12	 9 ;     CG2R61     CG2R61     CG2R61     CG2R61
    9    10    11    13	 9 ;     CG2R61     CG2R61     CG2R61      CG2O1
   42    10    11    12	 9 ;      HGR61     CG2R61     CG2R61     CG2R61
   42    10    11    13	 9 ;      HGR61     CG2R61     CG2R61      CG2O1
   10    11    12     7	 9 ;     CG2R61     CG2R61     CG2R61     CG2R61
   10    11    12    43	 9 ;     CG2R61     CG2R61     CG2R61      HGR61
   13    11    12     7	 9 ;      CG2O1     CG2R61     CG2R61     CG2R61
   13    11    12    43	 9 ;      CG2O1     CG2R61     CG2R61      HGR61
   12    11    13    15	 9 ;     CG2R61     CG2R61      CG2O1      NG2S1
   12    11    13    14	 9 ;     CG2R61     CG2R61      CG2O1      OG2D1
   10    11    13    15	 9 ;     CG2R61     CG2R61      CG2O1      NG2S1
   10    11    13    14	 9 ;     CG2R61     CG2R61      CG2O1      OG2D1
   11    13    15    23	 9 ;     CG2R61      CG2O1      NG2S1       HGP1
   11    13    15    16	 9 ;     CG2R61      CG2O1      NG2S1      CG321
   14    13    15    23	 9 ;      OG2D1      CG2O1      NG2S1       HGP1
   14    13    15    16	 9 ;      OG2D1      CG2O1      NG2S1      CG321
   23    15    16    17	 9 ;       HGP1      NG2S1      CG321      CG321
   23    15    16    44	 9 ;       HGP1      NG2S1      CG321       HGA2
   23    15    16    45	 9 ;       HGP1      NG2S1      CG321       HGA2
   13    15    16    17	 9 ;      CG2O1      NG2S1      CG321      CG321
   13    15    16    44	 9 ;      CG2O1      NG2S1      CG321       HGA2
   13    15    16    45	 9 ;      CG2O1      NG2S1      CG321       HGA2
   15    16    17    18	 9 ;      NG2S1      CG321      CG321      CG321
   15    16    17    46	 9 ;      NG2S1      CG321      CG321       HGA2
   15    16    17    47	 9 ;      NG2S1      CG321      CG321       HGA2
   44    16    17    18	 9 ;       HGA2      CG321      CG321      CG321
   44    16    17    46	 9 ;       HGA2      CG321      CG321       HGA2
   44    16    17    47	 9 ;       HGA2      CG321      CG321       HGA2
   45    16    17    18	 9 ;       HGA2      CG321      CG321      CG321
   45    16    17    46	 9 ;       HGA2      CG321      CG321       HGA2
   45    16    17    47	 9 ;       HGA2      CG321      CG321       HGA2
   16    17    18    19	 9 ;      CG321      CG321      CG321      CG321
   16    17    18    48	 9 ;      CG321      CG321      CG321       HGA2
   16    17    18    65	 9 ;      CG321      CG321      CG321       HGA2
   46    17    18    19	 9 ;       HGA2      CG321      CG321      CG321
   46    17    18    48	 9 ;       HGA2      CG321      CG321       HGA2
   46    17    18    65	 9 ;       HGA2      CG321      CG321       HGA2
   47    17    18    19	 9 ;       HGA2      CG321      CG321      CG321
   47    17    18    48	 9 ;       HGA2      CG321      CG321       HGA2
   47    17    18    65	 9 ;       HGA2      CG321      CG321       HGA2
   17    18    19    20	 9 ;      CG321      CG321      CG321      CG321
   17    18    19    49	 9 ;      CG321      CG321      CG321       HGA2
   17    18    19    66	 9 ;      CG321      CG321      CG321       HGA2
   48    18    19    20	 9 ;       HGA2      CG321      CG321      CG321
   48    18    19    49	 9 ;       HGA2      CG321      CG321       HGA2
   48    18    19    66	 9 ;       HGA2      CG321      CG321       HGA2
   65    18    19    20	 9 ;       HGA2      CG321      CG321      CG321
   65    18    19    49	 9 ;       HGA2      CG321      CG321       HGA2
   65    18    19    66	 9 ;       HGA2      CG321      CG321       HGA2
   18    19    20     1	 9 ;      CG321      CG321      CG321      OG301
   18    19    20    50	 9 ;      CG321      CG321      CG321       HGA2
   18    19    20    51	 9 ;      CG321      CG321      CG321       HGA2
   49    19    20     1	 9 ;       HGA2      CG321      CG321      OG301
   49    19    20    50	 9 ;       HGA2      CG321      CG321       HGA2
   49    19    20    51	 9 ;       HGA2      CG321      CG321       HGA2
   66    19    20     1	 9 ;       HGA2      CG321      CG321      OG301
   66    19    20    50	 9 ;       HGA2      CG321      CG321       HGA2
   66    19    20    51	 9 ;       HGA2      CG321      CG321       HGA2
   25    24    36    37	 9 ;      CG324      CG311      OG311       HGP1
    3    24    36    37	 9 ;      CG311      CG311      OG311       HGP1
   55    24    36    37	 9 ;       HGA1      CG311      OG311       HGP1
   36    24    25    26	 9 ;      OG311      CG311      CG324      NG3P2
   36    24    25    56	 9 ;      OG311      CG311      CG324       HGA2
   36    24    25    57	 9 ;      OG311      CG311      CG324       HGA2
    3    24    25    26	 9 ;      CG311      CG311      CG324      NG3P2
    3    24    25    56	 9 ;      CG311      CG311      CG324       HGA2
    3    24    25    57	 9 ;      CG311      CG311      CG324       HGA2
   55    24    25    26	 9 ;       HGA1      CG311      CG324      NG3P2
   55    24    25    56	 9 ;       HGA1      CG311      CG324       HGA2
   55    24    25    57	 9 ;       HGA1      CG311      CG324       HGA2
   24    25    26    27	 9 ;      CG311      CG324      NG3P2       HGP2
   24    25    26    28	 9 ;      CG311      CG324      NG3P2       HGP2
   24    25    26    29	 9 ;      CG311      CG324      NG3P2      CG324
   56    25    26    27	 9 ;       HGA2      CG324      NG3P2       HGP2
   56    25    26    28	 9 ;       HGA2      CG324      NG3P2       HGP2
   56    25    26    29	 9 ;       HGA2      CG324      NG3P2      CG324
   57    25    26    27	 9 ;       HGA2      CG324      NG3P2       HGP2
   57    25    26    28	 9 ;       HGA2      CG324      NG3P2       HGP2
   57    25    26    29	 9 ;       HGA2      CG324      NG3P2      CG324
   27    26    29    30	 9 ;       HGP2      NG3P2      CG324     CG2R61
   27    26    29    58	 9 ;       HGP2      NG3P2      CG324       HGA2
   27    26    29    59	 9 ;       HGP2      NG3P2      CG324       HGA2
   28    26    29    30	 9 ;       HGP2      NG3P2      CG324     CG2R61
   28    26    29    58	 9 ;       HGP2      NG3P2      CG324       HGA2
   28    26    29    59	 9 ;       HGP2      NG3P2      CG324       HGA2
   25    26    29    30	 9 ;      CG324      NG3P2      CG324     CG2R61
   25    26    29    58	 9 ;      CG324      NG3P2      CG324       HGA2
   25    26    29    59	 9 ;      CG324      NG3P2      CG324       HGA2
   26    29    30    31	 9 ;      NG3P2      CG324     CG2R61     CG2R61
   26    29    30    35	 9 ;      NG3P2      CG324     CG2R61     CG2R61
   58    29    30    31	 9 ;       HGA2      CG324     CG2R61     CG2R61
   58    29    30    35	 9 ;       HGA2      CG324     CG2R61     CG2R61
   59    29    30    31	 9 ;       HGA2      CG324     CG2R61     CG2R61
   59    29    30    35	 9 ;       HGA2      CG324     CG2R61     CG2R61
   29    30    31    32	 9 ;      CG324     CG2R61     CG2R61     CG2R61
   29    30    31    60	 9 ;      CG324     CG2R61     CG2R61      HGR61
   35    30    31    32	 9 ;     CG2R61     CG2R61     CG2R61     CG2R61
   35    30    31    60	 9 ;     CG2R61     CG2R61     CG2R61      HGR61
   31    30    35    34	 9 ;     CG2R61     CG2R61     CG2R61     CG2R61
   31    30    35    64	 9 ;     CG2R61     CG2R61     CG2R61      HGR61
   29    30    35    34	 9 ;      CG324     CG2R61     CG2R61     CG2R61
   29    30    35    64	 9 ;      CG324     CG2R61     CG2R61      HGR61
   30    31    32    33	 9 ;     CG2R61     CG2R61     CG2R61     CG2R61
   30    31    32    61	 9 ;     CG2R61     CG2R61     CG2R61      HGR61
   60    31    32    33	 9 ;      HGR61     CG2R61     CG2R61     CG2R61
   60    31    32    61	 9 ;      HGR61     CG2R61     CG2R61      HGR61
   31    32    33    34	 9 ;     CG2R61     CG2R61     CG2R61     CG2R61
   31    32    33    62	 9 ;     CG2R61     CG2R61     CG2R61      HGR61
   61    32    33    34	 9 ;      HGR61     CG2R61     CG2R61     CG2R61
   61    32    33    62	 9 ;      HGR61     CG2R61     CG2R61      HGR61
   32    33    34    35	 9 ;     CG2R61     CG2R61     CG2R61     CG2R61
   32    33    34    63	 9 ;     CG2R61     CG2R61     CG2R61      HGR61
   62    33    34    35	 9 ;      HGR61     CG2R61     CG2R61     CG2R61
   62    33    34    63	 9 ;      HGR61     CG2R61     CG2R61      HGR61
   33    34    35    30	 9 ;     CG2R61     CG2R61     CG2R61     CG2R61
   33    34    35    64	 9 ;     CG2R61     CG2R61     CG2R61      HGR61
   63    34    35    30	 9 ;      HGR61     CG2R61     CG2R61     CG2R61
   63    34    35    64	 9 ;      HGR61     CG2R61     CG2R61      HGR61

[ dihedrals ]
;	ai	  aj	ak	  al funct			  c0			c1			  c2			c3
    5     7     4     6	 2
   13    11    15    14	 2

