Gromacs Runs On Most of All Computer Systems
   70
    1LIG     N1    1  -1.670   0.335  -1.649
    1LIG     H1    2  -1.649   0.400  -1.727
    1LIG     H2    3  -1.675   0.243  -1.696
    1LIG     C1    4  -1.548   0.335  -1.558
    1LIG     C2    5  -1.428   0.282  -1.641
    1LIG     O1    6  -1.457   0.312  -1.778
    1LIG     H3    7  -1.538   0.367  -1.783
    1LIG     C3    8  -1.287   0.332  -1.594
    1LIG     N2    9  -1.286   0.347  -1.447
    1LIG     C4   10  -1.204   0.436  -1.383
    1LIG     O2   11  -1.142   0.524  -1.442
    1LIG     C5   12  -1.207   0.423  -1.233
    1LIG     H4   13  -1.323   0.271  -1.391
    1LIG     C6   14  -1.174   0.233  -1.635
    1LIG     C7   15  -1.153   0.115  -1.543
    1LIG     C8   16  -1.235   0.001  -1.551
    1LIG     C9   17  -1.213  -0.109  -1.467
    1LIG     F1   18  -1.294  -0.215  -1.478
    1LIG    C10   19  -1.110  -0.111  -1.375
    1LIG    C11   20  -1.027   0.001  -1.368
    1LIG    C12   21  -1.048   0.112  -1.450
    1LIG     F2   22  -0.926   0.001  -1.281
    1LIG    C13   23  -1.812   0.362  -1.597
    1LIG    C14   24  -1.808   0.373  -1.442
    1LIG    C15   25  -1.949   0.383  -1.382
    1LIG    C16   26  -2.035   0.263  -1.419
    1LIG    C17   27  -2.039   0.239  -1.570
    1LIG    C18   28  -1.900   0.239  -1.633
    1LIG    C19   29  -1.859   0.497  -1.661
    1LIG    C20   30  -1.803   0.621  -1.621
    1LIG    C21   31  -1.839   0.743  -1.683
    1LIG    C22   32  -1.937   0.742  -1.783
    1LIG    C23   33  -1.995   0.622  -1.822
    1LIG    C24   34  -1.954   0.501  -1.764
    1LIG     N3   35  -1.775   0.866  -1.649
    1LIG    C25   36  -1.788   0.988  -1.712
    1LIG    C26   37  -1.696   1.072  -1.653
    1LIG     N4   38  -1.630   1.008  -1.553
    1LIG    C27   39  -1.681   0.887  -1.550
    1LIG     HN   40  -1.557   1.047  -1.492
    1LIG    HC2   41  -1.565   0.270  -1.472
    1LIG    HC3   42  -1.527   0.437  -1.524
    1LIG     HC   43  -1.428   0.173  -1.631
    1LIG    HC1   44  -1.267   0.429  -1.639
    1LIG    HC4   45  -1.139   0.497  -1.188
    1LIG    HC5   46  -1.308   0.440  -1.196
    1LIG    HC6   47  -1.175   0.323  -1.204
    1LIG    HC7   48  -1.081   0.289  -1.641
    1LIG    HC8   49  -1.197   0.195  -1.735
    1LIG    HC9   50  -1.316  -0.001  -1.622
    1LIG   HC10   51  -1.094  -0.196  -1.311
    1LIG   HC11   52  -0.981   0.197  -1.442
    1LIG   HC12   53  -1.751   0.461  -1.414
    1LIG   HC13   54  -1.758   0.285  -1.402
    1LIG   HC14   55  -1.941   0.389  -1.273
    1LIG   HC15   56  -1.997   0.474  -1.419
    1LIG   HC16   57  -2.136   0.280  -1.384
    1LIG   HC17   58  -1.994   0.174  -1.370
    1LIG   HC18   59  -2.086   0.142  -1.588
    1LIG   HC19   60  -2.100   0.317  -1.616
    1LIG   HC20   61  -1.912   0.237  -1.742
    1LIG   HC21   62  -1.847   0.149  -1.603
    1LIG   HC22   63  -1.730   0.622  -1.541
    1LIG   HC23   64  -1.967   0.834  -1.829
    1LIG   HC24   65  -2.071   0.621  -1.898
    1LIG   HC25   66  -1.998   0.409  -1.799
    1LIG   HC26   67  -1.857   1.013  -1.791
    1LIG   HC27   68  -1.679   1.175  -1.683
    1LIG   HC28   69  -1.652   0.812  -1.478
    1LIG    H35   70  -1.602   0.853  -1.617
   0.00000   0.00000   0.00000
