GROwing Monsters And Cloning Shrimps
   53
    1LIG     C1    1  -1.314   0.498  -1.516
    1LIG     C2    2  -1.454   0.498  -1.527
    1LIG     C3    3  -1.531   0.616  -1.532
    1LIG     C4    4  -1.464   0.737  -1.520
    1LIG     O1    5  -1.531   0.857  -1.506
    1LIG     C5    6  -1.666   0.860  -1.532
    1LIG     C6    7  -1.739   0.748  -1.575
    1LIG     C7    8  -1.872   0.766  -1.617
    1LIG     C8    9  -1.937   0.887  -1.595
    1LIG     C9   10  -1.869   0.990  -1.531
    1LIG    C10   11  -1.732   0.979  -1.505
    1LIG    C11   12  -1.683   0.613  -1.531
    1LIG     N1   13  -1.724   0.600  -1.389
    1LIG     HN   14  -1.727   0.673  -1.318
    1LIG    C12   15  -1.755   0.475  -1.376
    1LIG     O2   16  -1.754   0.395  -1.485
    1LIG    C13   17  -1.744   0.486  -1.594
    1LIG    C14   18  -1.325   0.742  -1.513
    1LIG    C15   19  -1.251   0.623  -1.511
    1LIG    C16   20  -1.241   0.370  -1.504
    1LIG    C17   21  -1.229   0.304  -1.381
    1LIG    C18   22  -1.156   0.185  -1.367
    1LIG    C19   23  -1.099   0.125  -1.478
    1LIG    C20   24  -1.107   0.190  -1.601
    1LIG    C21   25  -1.176   0.311  -1.614
    1LIG     O3   26  -1.034   0.005  -1.480
    1LIG    C22   27  -0.900  -0.001  -1.432
    1LIG     F1   28  -0.848   0.119  -1.396
    1LIG     F2   29  -0.821  -0.056  -1.526
    1LIG     F3   30  -0.897  -0.080  -1.323
    1LIG     N2   31  -1.788   0.419  -1.259
    1LIG     H1   32  -1.759   0.322  -1.262
    1LIG     H2   33  -1.889   0.420  -1.246
    1LIG     O4   34  -2.068   0.887  -1.630
    1LIG    C23   35  -2.116   1.010  -1.687
    1LIG     HC   36  -1.505   0.403  -1.533
    1LIG    HC1   37  -1.923   0.685  -1.666
    1LIG    HC2   38  -1.922   1.079  -1.501
    1LIG    HC3   39  -1.678   1.063  -1.464
    1LIG    HN2   40  -1.629   0.578  -1.363
    1LIG    HC4   41  -1.860   0.499  -1.394
    1LIG    HC5   42  -1.678   0.447  -1.672
    1LIG    HC6   43  -1.842   0.508  -1.635
    1LIG    HC7   44  -1.275   0.837  -1.508
    1LIG    HC8   45  -1.143   0.628  -1.507
    1LIG    HC9   46  -1.277   0.346  -1.294
    1LIG   HC10   47  -1.144   0.141  -1.269
    1LIG   HC11   48  -1.058   0.147  -1.687
    1LIG   HC12   49  -1.180   0.360  -1.710
    1LIG    HN1   50  -1.743   0.468  -1.182
    1LIG   HC13   51  -2.209   0.991  -1.740
    1LIG   HC14   52  -2.042   1.049  -1.757
    1LIG   HC15   53  -2.133   1.083  -1.608
   0.00000   0.00000   0.00000
