Getting the Right Output Means no Artefacts in Calculating Stuff
   48
    1LIG     C1    1  -1.234   0.255  -1.560
    1LIG     N1    2  -1.153   0.159  -1.613
    1LIG    HN3    3  -1.115   0.166  -1.708
    1LIG     C2    4  -1.126   0.051  -1.533
    1LIG     C3    5  -1.173   0.035  -1.403
    1LIG     C4    6  -1.257   0.135  -1.353
    1LIG     C5    7  -1.288   0.245  -1.432
    1LIG     C6    8  -1.136  -0.078  -1.325
    1LIG     N2    9  -1.105  -0.169  -1.260
    1LIG     C7   10  -1.260   0.379  -1.642
    1LIG     N3   11  -1.266   0.498  -1.571
    1LIG     H1   12  -1.248   0.489  -1.471
    1LIG     O1   13  -1.277   0.366  -1.763
    1LIG     C8   14  -1.304   0.625  -1.621
    1LIG     C9   15  -1.224   0.703  -1.705
    1LIG    C10   16  -1.271   0.825  -1.754
    1LIG    C11   17  -1.399   0.869  -1.723
    1LIG     F1   18  -1.442   0.984  -1.777
    1LIG    C12   19  -1.483   0.794  -1.640
    1LIG    C13   20  -1.431   0.673  -1.587
    1LIG    C14   21  -1.630   0.837  -1.614
    1LIG     N4   22  -1.630   0.967  -1.546
    1LIG    C15   23  -1.711   1.060  -1.575
    1LIG    HN4   24  -1.561   0.983  -1.472
    1LIG     O2   25  -1.808   1.056  -1.668
    1LIG    C16   26  -1.839   0.928  -1.725
    1LIG    C17   27  -1.718   0.836  -1.740
    1LIG     F2   28  -1.648   0.881  -1.849
    1LIG    C18   29  -1.690   0.739  -1.510
    1LIG     N5   30  -1.707   1.179  -1.512
    1LIG     H2   31  -1.711   1.259  -1.574
    1LIG     H3   32  -1.637   1.184  -1.440
    1LIG     HC   33  -1.063  -0.026  -1.574
    1LIG    HC1   34  -1.297   0.126  -1.253
    1LIG    HC2   35  -1.353   0.323  -1.394
    1LIG    HC3   36  -1.125   0.669  -1.731
    1LIG    HC4   37  -1.207   0.885  -1.818
    1LIG    HC5   38  -1.492   0.616  -1.519
    1LIG    HN2   39  -1.565   1.003  -1.614
    1LIG    HC6   40  -1.781   1.023  -1.500
    1LIG    HC7   41  -1.882   0.945  -1.824
    1LIG    HC8   42  -1.913   0.878  -1.663
    1LIG    HC9   43  -1.753   0.735  -1.760
    1LIG   HC10   44  -1.791   0.771  -1.485
    1LIG   HC11   45  -1.629   0.739  -1.420
    1LIG   HC12   46  -1.693   0.639  -1.553
    1LIG    HN1   47  -1.795   1.184  -1.462
    1LIG    H21   48  -1.322   0.206  -1.602
   0.00000   0.00000   0.00000
