; Created by cgenff_charmm2gmx.py

[ moleculetype ]
; Name			   nrexcl
LIG				 3

[ atoms ]
;	 nr		  type	resnr residue  atom   cgnr	   charge		mass  typeB    chargeB		massB
; residue	 1 LIG rtp LIG q	qsum
     1      CG311      1    LIG     C1      1      0.436     12.011   ;
     2      NG311      1    LIG     N1      2     -0.568     14.007   ;
     3     HGPAM1      1    LIG    HN3      3      0.375      1.008   ;
     4     CG2D1O      1    LIG     C2      4     -0.116     12.011   ;
     5     CG2DC1      1    LIG     C3      5      0.124     12.011   ;
     6     CG2DC2      1    LIG     C4      6     -0.239     12.011   ;
     7     CG2DC2      1    LIG     C5      7     -0.304     12.011   ;
     8      CG1N1      1    LIG     C6      8      0.301     12.011   ;
     9      NG1T1      1    LIG     N2      9     -0.413     14.007   ;
    10      CG2O1      1    LIG     C7     10      0.362     12.011   ;
    11      NG2S1      1    LIG     N3     11     -0.504     14.007   ;
    12       HGP1      1    LIG     H1     12      0.329      1.008   ;
    13      OG2D1      1    LIG     O1     13     -0.480     15.999   ;
    14     CG2R61      1    LIG     C8     14      0.167     12.011   ;
    15     CG2R61      1    LIG     C9     15     -0.154     12.011   ;
    16     CG2R61      1    LIG    C10     16     -0.093     12.011   ;
    17     CG2R66      1    LIG    C11     17      0.015     12.011   ;
    18       FGR1      1    LIG     F1     18     -0.137     18.998   ;
    19     CG2R61      1    LIG    C12     19      0.115     12.011   ;
    20     CG2R61      1    LIG    C13     20     -0.160     12.011   ;
    21      CG301      1    LIG    C14     21      0.463     12.011   ;
    22      NG3P2      1    LIG     N4     22     -0.566     14.007   ;
    23      CG314      1    LIG    C15     23      0.622     12.011   ;
    24       HGP2      1    LIG    HN4     24      0.372      1.008   ;
    25     OG3C61      1    LIG     O2     25     -0.307     15.999   ;
    26      CG321      1    LIG    C16     26      0.059     12.011   ;
    27      CG322      1    LIG    C17     27      0.132     12.011   ;
    28       FGA1      1    LIG     F2     28     -0.210     18.998   ;
    29      CG331      1    LIG    C18     29     -0.298     12.011   ;
    30      NG3P3      1    LIG     N5     30     -0.358     14.007   ;
    31       HGP2      1    LIG     H2     31      0.333      1.008   ;
    32       HGP2      1    LIG     H3     32      0.333      1.008   ;
    33       HGA4      1    LIG     HC     33      0.162      1.008   ;
    34       HGA4      1    LIG    HC1     34      0.153      1.008   ;
    35       HGA4      1    LIG    HC2     35      0.154      1.008   ;
    36      HGR61      1    LIG    HC3     36      0.116      1.008   ;
    37      HGR62      1    LIG    HC4     37      0.179      1.008   ;
    38      HGR61      1    LIG    HC5     38      0.116      1.008   ;
    39       HGP2      1    LIG    HN2     39      0.372      1.008   ;
    40       HGA1      1    LIG    HC6     40      0.142      1.008   ;
    41       HGA2      1    LIG    HC7     41      0.090      1.008   ;
    42       HGA2      1    LIG    HC8     42      0.090      1.008   ;
    43       HGA6      1    LIG    HC9     43      0.102      1.008   ;
    44       HGA3      1    LIG   HC10     44      0.090      1.008   ;
    45       HGA3      1    LIG   HC11     45      0.090      1.008   ;
    46       HGA3      1    LIG   HC12     46      0.090      1.008   ;
    47       HGP2      1    LIG    HN1     47      0.333      1.008   ;
    48       HGA1      1    LIG    H21     48      0.090      1.008   ;

[ bonds ]
;	ai	  aj funct			  c0			c1			  c2			c3
    1     2	 1 ;       CG311      NG311
    1    10	 1 ;       CG311      CG2O1
    1     7	 1 ;       CG311     CG2DC2
    1    48	 1 ;       CG311       HGA1
    2     3	 1 ;       NG311     HGPAM1
    2     4	 1 ;       NG311     CG2D1O
    4     5	 1 ;      CG2D1O     CG2DC1
    4    33	 1 ;      CG2D1O       HGA4
    5     8	 1 ;      CG2DC1      CG1N1
    5     6	 1 ;      CG2DC1     CG2DC2
    6     7	 1 ;      CG2DC2     CG2DC2
    6    34	 1 ;      CG2DC2       HGA4
    7    35	 1 ;      CG2DC2       HGA4
    8     9	 1 ;       CG1N1      NG1T1
   10    13	 1 ;       CG2O1      OG2D1
   10    11	 1 ;       CG2O1      NG2S1
   11    14	 1 ;       NG2S1     CG2R61
   11    12	 1 ;       NG2S1       HGP1
   14    15	 1 ;      CG2R61     CG2R61
   14    20	 1 ;      CG2R61     CG2R61
   15    16	 1 ;      CG2R61     CG2R61
   15    36	 1 ;      CG2R61      HGR61
   16    17	 1 ;      CG2R61     CG2R66
   16    37	 1 ;      CG2R61      HGR62
   17    18	 1 ;      CG2R66       FGR1
   17    19	 1 ;      CG2R66     CG2R61
   19    20	 1 ;      CG2R61     CG2R61
   19    21	 1 ;      CG2R61      CG301
   20    38	 1 ;      CG2R61      HGR61
   21    27	 1 ;       CG301      CG322
   21    22	 1 ;       CG301      NG3P2
   21    29	 1 ;       CG301      CG331
   22    24	 1 ;       NG3P2       HGP2
   22    23	 1 ;       NG3P2      CG314
   22    39	 1 ;       NG3P2       HGP2
   23    30	 1 ;       CG314      NG3P3
   23    25	 1 ;       CG314     OG3C61
   23    40	 1 ;       CG314       HGA1
   25    26	 1 ;      OG3C61      CG321
   26    27	 1 ;       CG321      CG322
   26    41	 1 ;       CG321       HGA2
   26    42	 1 ;       CG321       HGA2
   27    28	 1 ;       CG322       FGA1
   27    43	 1 ;       CG322       HGA6
   29    44	 1 ;       CG331       HGA3
   29    45	 1 ;       CG331       HGA3
   29    46	 1 ;       CG331       HGA3
   30    31	 1 ;       NG3P3       HGP2
   30    32	 1 ;       NG3P3       HGP2
   30    47	 1 ;       NG3P3       HGP2

[ pairs ]
;	ai	  aj funct			  c0			c1			  c2			c3
    1     5	 1
    1    33	 1
    1    34	 1
    1    14	 1
    1    12	 1
    2    13	 1
    2    11	 1
    2     6	 1
    2    35	 1
    2     8	 1
    3    10	 1
    3     7	 1
    3    48	 1
    3     5	 1
    3    33	 1
    4    10	 1
    4     7	 1
    4    48	 1
    4     9	 1
    4    34	 1
    5    35	 1
    6    10	 1
    6    48	 1
    6    33	 1
    6     9	 1
    7    13	 1
    7    11	 1
    7     8	 1
    8    33	 1
    8    34	 1
   10    35	 1
   10    15	 1
   10    20	 1
   11    48	 1
   11    16	 1
   11    36	 1
   11    19	 1
   11    38	 1
   12    13	 1
   12    15	 1
   12    20	 1
   13    48	 1
   13    14	 1
   14    17	 1
   14    37	 1
   14    21	 1
   15    19	 1
   15    38	 1
   15    18	 1
   16    20	 1
   16    21	 1
   17    36	 1
   17    38	 1
   17    27	 1
   17    22	 1
   17    29	 1
   18    37	 1
   18    20	 1
   18    21	 1
   19    37	 1
   19    28	 1
   19    26	 1
   19    43	 1
   19    24	 1
   19    23	 1
   19    39	 1
   19    44	 1
   19    45	 1
   19    46	 1
   20    36	 1
   20    27	 1
   20    22	 1
   20    29	 1
   21    38	 1
   21    30	 1
   21    25	 1
   21    40	 1
   21    41	 1
   21    42	 1
   22    28	 1
   22    26	 1
   22    43	 1
   22    44	 1
   22    45	 1
   22    46	 1
   22    31	 1
   22    32	 1
   22    47	 1
   23    27	 1
   23    29	 1
   23    41	 1
   23    42	 1
   24    27	 1
   24    29	 1
   24    30	 1
   24    25	 1
   24    40	 1
   25    39	 1
   25    31	 1
   25    32	 1
   25    47	 1
   25    28	 1
   25    43	 1
   26    29	 1
   26    30	 1
   26    40	 1
   27    39	 1
   27    44	 1
   27    45	 1
   27    46	 1
   28    29	 1
   28    41	 1
   28    42	 1
   29    43	 1
   29    39	 1
   30    39	 1
   31    40	 1
   32    40	 1
   34    35	 1
   35    48	 1
   36    37	 1
   39    40	 1
   40    47	 1
   41    43	 1
   42    43	 1

[ angles ]
;	ai	  aj	ak funct			c0			  c1			c2			  c3
    2     1    10	5 ;      NG311      CG311      CG2O1
    2     1     7	5 ;      NG311      CG311     CG2DC2
    2     1    48	5 ;      NG311      CG311       HGA1
   10     1     7	5 ;      CG2O1      CG311     CG2DC2
   10     1    48	5 ;      CG2O1      CG311       HGA1
    7     1    48	5 ;     CG2DC2      CG311       HGA1
    3     2     4	5 ;     HGPAM1      NG311     CG2D1O
    3     2     1	5 ;     HGPAM1      NG311      CG311
    4     2     1	5 ;     CG2D1O      NG311      CG311
    2     4     5	5 ;      NG311     CG2D1O     CG2DC1
    2     4    33	5 ;      NG311     CG2D1O       HGA4
    5     4    33	5 ;     CG2DC1     CG2D1O       HGA4
    4     5     8	5 ;     CG2D1O     CG2DC1      CG1N1
    4     5     6	5 ;     CG2D1O     CG2DC1     CG2DC2
    8     5     6	5 ;      CG1N1     CG2DC1     CG2DC2
    5     6     7	5 ;     CG2DC1     CG2DC2     CG2DC2
    5     6    34	5 ;     CG2DC1     CG2DC2       HGA4
    7     6    34	5 ;     CG2DC2     CG2DC2       HGA4
    1     7     6	5 ;      CG311     CG2DC2     CG2DC2
    1     7    35	5 ;      CG311     CG2DC2       HGA4
    6     7    35	5 ;     CG2DC2     CG2DC2       HGA4
    5     8     9	5 ;     CG2DC1      CG1N1      NG1T1
   13    10    11	5 ;      OG2D1      CG2O1      NG2S1
   13    10     1	5 ;      OG2D1      CG2O1      CG311
   11    10     1	5 ;      NG2S1      CG2O1      CG311
   14    11    10	5 ;     CG2R61      NG2S1      CG2O1
   14    11    12	5 ;     CG2R61      NG2S1       HGP1
   10    11    12	5 ;      CG2O1      NG2S1       HGP1
   15    14    11	5 ;     CG2R61     CG2R61      NG2S1
   15    14    20	5 ;     CG2R61     CG2R61     CG2R61
   11    14    20	5 ;      NG2S1     CG2R61     CG2R61
   16    15    14	5 ;     CG2R61     CG2R61     CG2R61
   16    15    36	5 ;     CG2R61     CG2R61      HGR61
   14    15    36	5 ;     CG2R61     CG2R61      HGR61
   15    16    17	5 ;     CG2R61     CG2R61     CG2R66
   15    16    37	5 ;     CG2R61     CG2R61      HGR62
   17    16    37	5 ;     CG2R66     CG2R61      HGR62
   16    17    18	5 ;     CG2R61     CG2R66       FGR1
   16    17    19	5 ;     CG2R61     CG2R66     CG2R61
   18    17    19	5 ;       FGR1     CG2R66     CG2R61
   17    19    20	5 ;     CG2R66     CG2R61     CG2R61
   17    19    21	5 ;     CG2R66     CG2R61      CG301
   20    19    21	5 ;     CG2R61     CG2R61      CG301
   14    20    19	5 ;     CG2R61     CG2R61     CG2R61
   14    20    38	5 ;     CG2R61     CG2R61      HGR61
   19    20    38	5 ;     CG2R61     CG2R61      HGR61
   19    21    27	5 ;     CG2R61      CG301      CG322
   19    21    22	5 ;     CG2R61      CG301      NG3P2
   19    21    29	5 ;     CG2R61      CG301      CG331
   27    21    22	5 ;      CG322      CG301      NG3P2
   27    21    29	5 ;      CG322      CG301      CG331
   22    21    29	5 ;      NG3P2      CG301      CG331
   24    22    21	5 ;       HGP2      NG3P2      CG301
   24    22    23	5 ;       HGP2      NG3P2      CG314
   24    22    39	5 ;       HGP2      NG3P2       HGP2
   21    22    23	5 ;      CG301      NG3P2      CG314
   21    22    39	5 ;      CG301      NG3P2       HGP2
   23    22    39	5 ;      CG314      NG3P2       HGP2
   22    23    30	5 ;      NG3P2      CG314      NG3P3
   22    23    25	5 ;      NG3P2      CG314     OG3C61
   22    23    40	5 ;      NG3P2      CG314       HGA1
   30    23    25	5 ;      NG3P3      CG314     OG3C61
   30    23    40	5 ;      NG3P3      CG314       HGA1
   25    23    40	5 ;     OG3C61      CG314       HGA1
   23    25    26	5 ;      CG314     OG3C61      CG321
   27    26    25	5 ;      CG322      CG321     OG3C61
   27    26    41	5 ;      CG322      CG321       HGA2
   27    26    42	5 ;      CG322      CG321       HGA2
   25    26    41	5 ;     OG3C61      CG321       HGA2
   25    26    42	5 ;     OG3C61      CG321       HGA2
   41    26    42	5 ;       HGA2      CG321       HGA2
   28    27    21	5 ;       FGA1      CG322      CG301
   28    27    26	5 ;       FGA1      CG322      CG321
   28    27    43	5 ;       FGA1      CG322       HGA6
   21    27    26	5 ;      CG301      CG322      CG321
   21    27    43	5 ;      CG301      CG322       HGA6
   26    27    43	5 ;      CG321      CG322       HGA6
   21    29    44	5 ;      CG301      CG331       HGA3
   21    29    45	5 ;      CG301      CG331       HGA3
   21    29    46	5 ;      CG301      CG331       HGA3
   44    29    45	5 ;       HGA3      CG331       HGA3
   44    29    46	5 ;       HGA3      CG331       HGA3
   45    29    46	5 ;       HGA3      CG331       HGA3
   31    30    32	5 ;       HGP2      NG3P3       HGP2
   31    30    23	5 ;       HGP2      NG3P3      CG314
   31    30    47	5 ;       HGP2      NG3P3       HGP2
   32    30    23	5 ;       HGP2      NG3P3      CG314
   32    30    47	5 ;       HGP2      NG3P3       HGP2
   23    30    47	5 ;      CG314      NG3P3       HGP2

[ dihedrals ]
;	ai	  aj	ak	  al funct			  c0			c1			  c2			c3			  c4			c5
   10     1     2     3	 9 ;      CG2O1      CG311      NG311     HGPAM1
   10     1     2     4	 9 ;      CG2O1      CG311      NG311     CG2D1O
    7     1     2     3	 9 ;     CG2DC2      CG311      NG311     HGPAM1
    7     1     2     4	 9 ;     CG2DC2      CG311      NG311     CG2D1O
   48     1     2     3	 9 ;       HGA1      CG311      NG311     HGPAM1
   48     1     2     4	 9 ;       HGA1      CG311      NG311     CG2D1O
    2     1    10    13	 9 ;      NG311      CG311      CG2O1      OG2D1
    2     1    10    11	 9 ;      NG311      CG311      CG2O1      NG2S1
    7     1    10    13	 9 ;     CG2DC2      CG311      CG2O1      OG2D1
    7     1    10    11	 9 ;     CG2DC2      CG311      CG2O1      NG2S1
   48     1    10    13	 9 ;       HGA1      CG311      CG2O1      OG2D1
   48     1    10    11	 9 ;       HGA1      CG311      CG2O1      NG2S1
    2     1     7     6	 9 ;      NG311      CG311     CG2DC2     CG2DC2
    2     1     7    35	 9 ;      NG311      CG311     CG2DC2       HGA4
   10     1     7     6	 9 ;      CG2O1      CG311     CG2DC2     CG2DC2
   10     1     7    35	 9 ;      CG2O1      CG311     CG2DC2       HGA4
   48     1     7     6	 9 ;       HGA1      CG311     CG2DC2     CG2DC2
   48     1     7    35	 9 ;       HGA1      CG311     CG2DC2       HGA4
    3     2     4     5	 9 ;     HGPAM1      NG311     CG2D1O     CG2DC1
    3     2     4    33	 9 ;     HGPAM1      NG311     CG2D1O       HGA4
    1     2     4     5	 9 ;      CG311      NG311     CG2D1O     CG2DC1
    1     2     4    33	 9 ;      CG311      NG311     CG2D1O       HGA4
    2     4     5     8	 9 ;      NG311     CG2D1O     CG2DC1      CG1N1
    2     4     5     6	 9 ;      NG311     CG2D1O     CG2DC1     CG2DC2
   33     4     5     8	 9 ;       HGA4     CG2D1O     CG2DC1      CG1N1
   33     4     5     6	 9 ;       HGA4     CG2D1O     CG2DC1     CG2DC2
    4     5     6     7	 9 ;     CG2D1O     CG2DC1     CG2DC2     CG2DC2
    4     5     6    34	 9 ;     CG2D1O     CG2DC1     CG2DC2       HGA4
    8     5     6     7	 9 ;      CG1N1     CG2DC1     CG2DC2     CG2DC2
    8     5     6    34	 9 ;      CG1N1     CG2DC1     CG2DC2       HGA4
    5     6     7     1	 9 ;     CG2DC1     CG2DC2     CG2DC2      CG311
    5     6     7    35	 9 ;     CG2DC1     CG2DC2     CG2DC2       HGA4
   34     6     7     1	 9 ;       HGA4     CG2DC2     CG2DC2      CG311
   34     6     7    35	 9 ;       HGA4     CG2DC2     CG2DC2       HGA4
   13    10    11    14	 9 ;      OG2D1      CG2O1      NG2S1     CG2R61
   13    10    11    12	 9 ;      OG2D1      CG2O1      NG2S1       HGP1
    1    10    11    14	 9 ;      CG311      CG2O1      NG2S1     CG2R61
    1    10    11    12	 9 ;      CG311      CG2O1      NG2S1       HGP1
   10    11    14    15	 9 ;      CG2O1      NG2S1     CG2R61     CG2R61
   10    11    14    20	 9 ;      CG2O1      NG2S1     CG2R61     CG2R61
   12    11    14    15	 9 ;       HGP1      NG2S1     CG2R61     CG2R61
   12    11    14    20	 9 ;       HGP1      NG2S1     CG2R61     CG2R61
   11    14    15    16	 9 ;      NG2S1     CG2R61     CG2R61     CG2R61
   11    14    15    36	 9 ;      NG2S1     CG2R61     CG2R61      HGR61
   20    14    15    16	 9 ;     CG2R61     CG2R61     CG2R61     CG2R61
   20    14    15    36	 9 ;     CG2R61     CG2R61     CG2R61      HGR61
   15    14    20    19	 9 ;     CG2R61     CG2R61     CG2R61     CG2R61
   15    14    20    38	 9 ;     CG2R61     CG2R61     CG2R61      HGR61
   11    14    20    19	 9 ;      NG2S1     CG2R61     CG2R61     CG2R61
   11    14    20    38	 9 ;      NG2S1     CG2R61     CG2R61      HGR61
   14    15    16    17	 9 ;     CG2R61     CG2R61     CG2R61     CG2R66
   14    15    16    37	 9 ;     CG2R61     CG2R61     CG2R61      HGR62
   36    15    16    17	 9 ;      HGR61     CG2R61     CG2R61     CG2R66
   36    15    16    37	 9 ;      HGR61     CG2R61     CG2R61      HGR62
   15    16    17    18	 9 ;     CG2R61     CG2R61     CG2R66       FGR1
   15    16    17    19	 9 ;     CG2R61     CG2R61     CG2R66     CG2R61
   37    16    17    18	 9 ;      HGR62     CG2R61     CG2R66       FGR1
   37    16    17    19	 9 ;      HGR62     CG2R61     CG2R66     CG2R61
   16    17    19    20	 9 ;     CG2R61     CG2R66     CG2R61     CG2R61
   16    17    19    21	 9 ;     CG2R61     CG2R66     CG2R61      CG301
   18    17    19    20	 9 ;       FGR1     CG2R66     CG2R61     CG2R61
   18    17    19    21	 9 ;       FGR1     CG2R66     CG2R61      CG301
   17    19    20    14	 9 ;     CG2R66     CG2R61     CG2R61     CG2R61
   17    19    20    38	 9 ;     CG2R66     CG2R61     CG2R61      HGR61
   21    19    20    14	 9 ;      CG301     CG2R61     CG2R61     CG2R61
   21    19    20    38	 9 ;      CG301     CG2R61     CG2R61      HGR61
   17    19    21    27	 9 ;     CG2R66     CG2R61      CG301      CG322
   17    19    21    22	 9 ;     CG2R66     CG2R61      CG301      NG3P2
   17    19    21    29	 9 ;     CG2R66     CG2R61      CG301      CG331
   20    19    21    27	 9 ;     CG2R61     CG2R61      CG301      CG322
   20    19    21    22	 9 ;     CG2R61     CG2R61      CG301      NG3P2
   20    19    21    29	 9 ;     CG2R61     CG2R61      CG301      CG331
   19    21    27    28	 9 ;     CG2R61      CG301      CG322       FGA1
   19    21    27    26	 9 ;     CG2R61      CG301      CG322      CG321
   19    21    27    43	 9 ;     CG2R61      CG301      CG322       HGA6
   22    21    27    28	 9 ;      NG3P2      CG301      CG322       FGA1
   22    21    27    26	 9 ;      NG3P2      CG301      CG322      CG321
   22    21    27    43	 9 ;      NG3P2      CG301      CG322       HGA6
   29    21    27    28	 9 ;      CG331      CG301      CG322       FGA1
   29    21    27    26	 9 ;      CG331      CG301      CG322      CG321
   29    21    27    43	 9 ;      CG331      CG301      CG322       HGA6
   19    21    22    24	 9 ;     CG2R61      CG301      NG3P2       HGP2
   19    21    22    23	 9 ;     CG2R61      CG301      NG3P2      CG314
   19    21    22    39	 9 ;     CG2R61      CG301      NG3P2       HGP2
   27    21    22    24	 9 ;      CG322      CG301      NG3P2       HGP2
   27    21    22    23	 9 ;      CG322      CG301      NG3P2      CG314
   27    21    22    39	 9 ;      CG322      CG301      NG3P2       HGP2
   29    21    22    24	 9 ;      CG331      CG301      NG3P2       HGP2
   29    21    22    23	 9 ;      CG331      CG301      NG3P2      CG314
   29    21    22    39	 9 ;      CG331      CG301      NG3P2       HGP2
   19    21    29    44	 9 ;     CG2R61      CG301      CG331       HGA3
   19    21    29    45	 9 ;     CG2R61      CG301      CG331       HGA3
   19    21    29    46	 9 ;     CG2R61      CG301      CG331       HGA3
   27    21    29    44	 9 ;      CG322      CG301      CG331       HGA3
   27    21    29    45	 9 ;      CG322      CG301      CG331       HGA3
   27    21    29    46	 9 ;      CG322      CG301      CG331       HGA3
   22    21    29    44	 9 ;      NG3P2      CG301      CG331       HGA3
   22    21    29    45	 9 ;      NG3P2      CG301      CG331       HGA3
   22    21    29    46	 9 ;      NG3P2      CG301      CG331       HGA3
   24    22    23    30	 9 ;       HGP2      NG3P2      CG314      NG3P3
   24    22    23    25	 9 ;       HGP2      NG3P2      CG314     OG3C61
   24    22    23    40	 9 ;       HGP2      NG3P2      CG314       HGA1
   21    22    23    30	 9 ;      CG301      NG3P2      CG314      NG3P3
   21    22    23    25	 9 ;      CG301      NG3P2      CG314     OG3C61
   21    22    23    40	 9 ;      CG301      NG3P2      CG314       HGA1
   39    22    23    30	 9 ;       HGP2      NG3P2      CG314      NG3P3
   39    22    23    25	 9 ;       HGP2      NG3P2      CG314     OG3C61
   39    22    23    40	 9 ;       HGP2      NG3P2      CG314       HGA1
   22    23    30    31	 9 ;      NG3P2      CG314      NG3P3       HGP2
   22    23    30    32	 9 ;      NG3P2      CG314      NG3P3       HGP2
   22    23    30    47	 9 ;      NG3P2      CG314      NG3P3       HGP2
   25    23    30    31	 9 ;     OG3C61      CG314      NG3P3       HGP2
   25    23    30    32	 9 ;     OG3C61      CG314      NG3P3       HGP2
   25    23    30    47	 9 ;     OG3C61      CG314      NG3P3       HGP2
   40    23    30    31	 9 ;       HGA1      CG314      NG3P3       HGP2
   40    23    30    32	 9 ;       HGA1      CG314      NG3P3       HGP2
   40    23    30    47	 9 ;       HGA1      CG314      NG3P3       HGP2
   22    23    25    26	 9 ;      NG3P2      CG314     OG3C61      CG321
   30    23    25    26	 9 ;      NG3P3      CG314     OG3C61      CG321
   40    23    25    26	 9 ;       HGA1      CG314     OG3C61      CG321
   23    25    26    27	 9 ;      CG314     OG3C61      CG321      CG322
   23    25    26    41	 9 ;      CG314     OG3C61      CG321       HGA2
   23    25    26    42	 9 ;      CG314     OG3C61      CG321       HGA2
   25    26    27    28	 9 ;     OG3C61      CG321      CG322       FGA1
   25    26    27    21	 9 ;     OG3C61      CG321      CG322      CG301
   25    26    27    43	 9 ;     OG3C61      CG321      CG322       HGA6
   41    26    27    28	 9 ;       HGA2      CG321      CG322       FGA1
   41    26    27    21	 9 ;       HGA2      CG321      CG322      CG301
   41    26    27    43	 9 ;       HGA2      CG321      CG322       HGA6
   42    26    27    28	 9 ;       HGA2      CG321      CG322       FGA1
   42    26    27    21	 9 ;       HGA2      CG321      CG322      CG301
   42    26    27    43	 9 ;       HGA2      CG321      CG322       HGA6

[ dihedrals ]
;	ai	  aj	ak	  al funct			  c0			c1			  c2			c3
    4     5     2    33	 2
   10     1    11    13	 2

