GROningen MAchine for Chemical Simulation
   50
    1LIG     C1    1  -1.508   0.314  -1.577
    1LIG     C2    2  -1.427   0.441  -1.562
    1LIG     C3    3  -1.420   0.336  -1.455
    1LIG     C4    4  -1.658   0.325  -1.587
    1LIG     C5    5  -1.721   0.261  -1.695
    1LIG     C6    6  -1.859   0.244  -1.701
    1LIG     C7    7  -1.944   0.289  -1.598
    1LIG     C8    8  -1.882   0.359  -1.493
    1LIG     C9    9  -1.742   0.378  -1.488
    1LIG    C10   10  -2.090   0.261  -1.603
    1LIG    C11   11  -2.150   0.168  -1.514
    1LIG    C12   12  -2.285   0.133  -1.522
    1LIG    C13   13  -2.364   0.196  -1.619
    1LIG    C14   14  -2.309   0.290  -1.706
    1LIG    C15   15  -2.173   0.322  -1.697
    1LIG      S   16  -2.367   0.012  -1.419
    1LIG    C16   17  -2.255  -0.009  -1.278
    1LIG    C17   18  -1.303   0.244  -1.446
    1LIG     N1   19  -1.215   0.244  -1.551
    1LIG    C18   20  -1.117   0.158  -1.552
    1LIG     HN   21  -1.226   0.311  -1.627
    1LIG     N2   22  -1.096   0.068  -1.450
    1LIG    C19   23  -0.989  -0.031  -1.448
    1LIG    C20   24  -1.183   0.062  -1.342
    1LIG      O   25  -1.175  -0.019  -1.250
    1LIG    C21   26  -1.291   0.160  -1.342
    1LIG     N3   27  -1.035   0.160  -1.660
    1LIG     H1   28  -0.995   0.073  -1.693
    1LIG     H2   29  -0.966   0.235  -1.655
    1LIG     HC   30  -1.465   0.244  -1.649
    1LIG    HC2   31  -1.341   0.459  -1.627
    1LIG    HC3   32  -1.485   0.530  -1.536
    1LIG    HC1   33  -1.472   0.358  -1.362
    1LIG    HC4   34  -1.661   0.225  -1.776
    1LIG    HC5   35  -1.903   0.194  -1.786
    1LIG    HC6   36  -1.943   0.400  -1.414
    1LIG    HC7   37  -1.698   0.434  -1.406
    1LIG    HC8   38  -2.089   0.123  -1.437
    1LIG    HC9   39  -2.469   0.171  -1.627
    1LIG   HC10   40  -2.371   0.339  -1.779
    1LIG   HC11   41  -2.132   0.395  -1.765
    1LIG   HC12   42  -2.302  -0.072  -1.203
    1LIG   HC13   43  -2.162  -0.056  -1.312
    1LIG   HC14   44  -2.232   0.089  -1.235
    1LIG   HC15   45  -1.053   0.230  -1.501
    1LIG   HC16   46  -0.926  -0.018  -1.536
    1LIG   HC17   47  -1.032  -0.131  -1.448
    1LIG   HC18   48  -0.928  -0.017  -1.358
    1LIG   HC19   49  -1.361   0.163  -1.260
    1LIG    HN1   50  -1.095   0.189  -1.736
   0.00000   0.00000   0.00000
