; Created by cgenff_charmm2gmx.py

[ moleculetype ]
; Name			   nrexcl
LIG				 3

[ atoms ]
;	 nr		  type	resnr residue  atom   cgnr	   charge		mass  typeB    chargeB		massB
; residue	 1 LIG rtp LIG q	qsum
     1     CG3C31      1    LIG     C1      1     -0.056     12.011   ;
     2     CG3C31      1    LIG     C2      2     -0.174     12.011   ;
     3     CG3C31      1    LIG     C3      3      0.064     12.011   ;
     4     CG2R61      1    LIG     C4      4     -0.035     12.011   ;
     5     CG2R61      1    LIG     C5      5     -0.116     12.011   ;
     6     CG2R61      1    LIG     C6      6     -0.119     12.011   ;
     7     CG2R67      1    LIG     C7      7      0.006     12.011   ;
     8     CG2R61      1    LIG     C8      8     -0.119     12.011   ;
     9     CG2R61      1    LIG     C9      9     -0.116     12.011   ;
    10     CG2R67      1    LIG    C10     10      0.005     12.011   ;
    11     CG2R61      1    LIG    C11     11     -0.118     12.011   ;
    12     CG2R61      1    LIG    C12     12      0.109     12.011   ;
    13     CG2R61      1    LIG    C13     13     -0.111     12.011   ;
    14     CG2R61      1    LIG    C14     14     -0.117     12.011   ;
    15     CG2R61      1    LIG    C15     15     -0.119     12.011   ;
    16      SG311      1    LIG      S     16     -0.320     32.060   ;
    17      CG331      1    LIG    C16     17     -0.063     12.011   ;
    18     CG2D1O      1    LIG    C17     18     -0.018     12.011   ;
    19      NG311      1    LIG     N1     19     -0.532     14.007   ;
    20      CG314      1    LIG    C18     20      0.649     12.011   ;
    21     HGPAM1      1    LIG     HN     21      0.321      1.008   ;
    22      NG2S0      1    LIG     N2     22     -0.343     14.007   ;
    23      CG331      1    LIG    C19     23     -0.238     12.011   ;
    24      CG2O1      1    LIG    C20     24      0.413     12.011   ;
    25      OG2D1      1    LIG      O     25     -0.540     15.999   ;
    26     CG2DC1      1    LIG    C21     26      0.094     12.011   ;
    27      NG3P3      1    LIG     N3     27     -0.425     14.007   ;
    28       HGP2      1    LIG     H1     28      0.313      1.008   ;
    29       HGP2      1    LIG     H2     29      0.313      1.008   ;
    30       HGA1      1    LIG     HC     30      0.090      1.008   ;
    31       HGA2      1    LIG    HC2     31      0.090      1.008   ;
    32       HGA2      1    LIG    HC3     32      0.090      1.008   ;
    33       HGA1      1    LIG    HC1     33      0.090      1.008   ;
    34      HGR61      1    LIG    HC4     34      0.116      1.008   ;
    35      HGR61      1    LIG    HC5     35      0.116      1.008   ;
    36      HGR61      1    LIG    HC6     36      0.116      1.008   ;
    37      HGR61      1    LIG    HC7     37      0.116      1.008   ;
    38      HGR61      1    LIG    HC8     38      0.116      1.008   ;
    39      HGR61      1    LIG    HC9     39      0.116      1.008   ;
    40      HGR61      1    LIG   HC10     40      0.116      1.008   ;
    41      HGR61      1    LIG   HC11     41      0.116      1.008   ;
    42       HGA3      1    LIG   HC12     42      0.090      1.008   ;
    43       HGA3      1    LIG   HC13     43      0.090      1.008   ;
    44       HGA3      1    LIG   HC14     44      0.090      1.008   ;
    45       HGA1      1    LIG   HC15     45      0.115      1.008   ;
    46       HGA3      1    LIG   HC16     46      0.090      1.008   ;
    47       HGA3      1    LIG   HC17     47      0.090      1.008   ;
    48       HGA3      1    LIG   HC18     48      0.090      1.008   ;
    49       HGA4      1    LIG   HC19     49      0.136      1.008   ;
    50       HGP2      1    LIG    HN1     50      0.313      1.008   ;

[ bonds ]
;	ai	  aj funct			  c0			c1			  c2			c3
    1     2	 1 ;      CG3C31     CG3C31
    1     3	 1 ;      CG3C31     CG3C31
    1     4	 1 ;      CG3C31     CG2R61
    1    30	 1 ;      CG3C31       HGA1
    2     3	 1 ;      CG3C31     CG3C31
    2    31	 1 ;      CG3C31       HGA2
    2    32	 1 ;      CG3C31       HGA2
    3    18	 1 ;      CG3C31     CG2D1O
    3    33	 1 ;      CG3C31       HGA1
    4     5	 1 ;      CG2R61     CG2R61
    4     9	 1 ;      CG2R61     CG2R61
    5     6	 1 ;      CG2R61     CG2R61
    5    34	 1 ;      CG2R61      HGR61
    6     7	 1 ;      CG2R61     CG2R67
    6    35	 1 ;      CG2R61      HGR61
    7     8	 1 ;      CG2R67     CG2R61
    7    10	 1 ;      CG2R67     CG2R67
    8     9	 1 ;      CG2R61     CG2R61
    8    36	 1 ;      CG2R61      HGR61
    9    37	 1 ;      CG2R61      HGR61
   10    15	 1 ;      CG2R67     CG2R61
   10    11	 1 ;      CG2R67     CG2R61
   11    12	 1 ;      CG2R61     CG2R61
   11    38	 1 ;      CG2R61      HGR61
   12    13	 1 ;      CG2R61     CG2R61
   12    16	 1 ;      CG2R61      SG311
   13    14	 1 ;      CG2R61     CG2R61
   13    39	 1 ;      CG2R61      HGR61
   14    15	 1 ;      CG2R61     CG2R61
   14    40	 1 ;      CG2R61      HGR61
   15    41	 1 ;      CG2R61      HGR61
   16    17	 1 ;       SG311      CG331
   17    42	 1 ;       CG331       HGA3
   17    43	 1 ;       CG331       HGA3
   17    44	 1 ;       CG331       HGA3
   18    19	 1 ;      CG2D1O      NG311
   18    26	 1 ;      CG2D1O     CG2DC1
   19    20	 1 ;       NG311      CG314
   19    21	 1 ;       NG311     HGPAM1
   20    27	 1 ;       CG314      NG3P3
   20    22	 1 ;       CG314      NG2S0
   20    45	 1 ;       CG314       HGA1
   22    23	 1 ;       NG2S0      CG331
   22    24	 1 ;       NG2S0      CG2O1
   23    46	 1 ;       CG331       HGA3
   23    47	 1 ;       CG331       HGA3
   23    48	 1 ;       CG331       HGA3
   24    25	 1 ;       CG2O1      OG2D1
   24    26	 1 ;       CG2O1     CG2DC1
   26    49	 1 ;      CG2DC1       HGA4
   27    29	 1 ;       NG3P3       HGP2
   27    28	 1 ;       NG3P3       HGP2
   27    50	 1 ;       NG3P3       HGP2

[ pairs ]
;	ai	  aj funct			  c0			c1			  c2			c3
    1    19	 1
    1    26	 1
    1     6	 1
    1    34	 1
    1     8	 1
    1    37	 1
    2     5	 1
    2     9	 1
    2    19	 1
    2    26	 1
    3     5	 1
    3     9	 1
    3    20	 1
    3    21	 1
    3    24	 1
    3    49	 1
    4    31	 1
    4    32	 1
    4    18	 1
    4    33	 1
    4     7	 1
    4    35	 1
    4    36	 1
    5    30	 1
    5     8	 1
    5    37	 1
    5    10	 1
    6     9	 1
    6    36	 1
    6    15	 1
    6    11	 1
    7    34	 1
    7    37	 1
    7    14	 1
    7    41	 1
    7    12	 1
    7    38	 1
    8    35	 1
    8    15	 1
    8    11	 1
    9    30	 1
    9    34	 1
    9    10	 1
   10    35	 1
   10    36	 1
   10    13	 1
   10    16	 1
   10    40	 1
   11    14	 1
   11    41	 1
   11    39	 1
   11    17	 1
   12    15	 1
   12    40	 1
   12    42	 1
   12    43	 1
   12    44	 1
   13    38	 1
   13    17	 1
   13    41	 1
   14    16	 1
   15    38	 1
   15    39	 1
   16    38	 1
   16    39	 1
   18    30	 1
   18    31	 1
   18    32	 1
   18    27	 1
   18    22	 1
   18    45	 1
   18    25	 1
   19    33	 1
   19    24	 1
   19    49	 1
   19    29	 1
   19    28	 1
   19    50	 1
   19    23	 1
   20    26	 1
   20    46	 1
   20    47	 1
   20    48	 1
   20    25	 1
   21    26	 1
   21    27	 1
   21    22	 1
   21    45	 1
   22    29	 1
   22    28	 1
   22    50	 1
   22    49	 1
   23    27	 1
   23    45	 1
   23    25	 1
   23    26	 1
   24    27	 1
   24    45	 1
   24    46	 1
   24    47	 1
   24    48	 1
   25    49	 1
   26    33	 1
   28    45	 1
   29    45	 1
   30    31	 1
   30    32	 1
   30    33	 1
   31    33	 1
   32    33	 1
   34    35	 1
   36    37	 1
   39    40	 1
   40    41	 1
   45    50	 1

[ angles ]
;	ai	  aj	ak funct			c0			  c1			c2			  c3
    2     1     3	5 ;     CG3C31     CG3C31     CG3C31
    2     1     4	5 ;     CG3C31     CG3C31     CG2R61
    2     1    30	5 ;     CG3C31     CG3C31       HGA1
    3     1     4	5 ;     CG3C31     CG3C31     CG2R61
    3     1    30	5 ;     CG3C31     CG3C31       HGA1
    4     1    30	5 ;     CG2R61     CG3C31       HGA1
    3     2     1	5 ;     CG3C31     CG3C31     CG3C31
    3     2    31	5 ;     CG3C31     CG3C31       HGA2
    3     2    32	5 ;     CG3C31     CG3C31       HGA2
    1     2    31	5 ;     CG3C31     CG3C31       HGA2
    1     2    32	5 ;     CG3C31     CG3C31       HGA2
   31     2    32	5 ;       HGA2     CG3C31       HGA2
    2     3    18	5 ;     CG3C31     CG3C31     CG2D1O
    2     3     1	5 ;     CG3C31     CG3C31     CG3C31
    2     3    33	5 ;     CG3C31     CG3C31       HGA1
   18     3     1	5 ;     CG2D1O     CG3C31     CG3C31
   18     3    33	5 ;     CG2D1O     CG3C31       HGA1
    1     3    33	5 ;     CG3C31     CG3C31       HGA1
    1     4     5	5 ;     CG3C31     CG2R61     CG2R61
    1     4     9	5 ;     CG3C31     CG2R61     CG2R61
    5     4     9	5 ;     CG2R61     CG2R61     CG2R61
    4     5     6	5 ;     CG2R61     CG2R61     CG2R61
    4     5    34	5 ;     CG2R61     CG2R61      HGR61
    6     5    34	5 ;     CG2R61     CG2R61      HGR61
    5     6     7	5 ;     CG2R61     CG2R61     CG2R67
    5     6    35	5 ;     CG2R61     CG2R61      HGR61
    7     6    35	5 ;     CG2R67     CG2R61      HGR61
    6     7     8	5 ;     CG2R61     CG2R67     CG2R61
    6     7    10	5 ;     CG2R61     CG2R67     CG2R67
    8     7    10	5 ;     CG2R61     CG2R67     CG2R67
    9     8     7	5 ;     CG2R61     CG2R61     CG2R67
    9     8    36	5 ;     CG2R61     CG2R61      HGR61
    7     8    36	5 ;     CG2R67     CG2R61      HGR61
    4     9     8	5 ;     CG2R61     CG2R61     CG2R61
    4     9    37	5 ;     CG2R61     CG2R61      HGR61
    8     9    37	5 ;     CG2R61     CG2R61      HGR61
    7    10    15	5 ;     CG2R67     CG2R67     CG2R61
    7    10    11	5 ;     CG2R67     CG2R67     CG2R61
   15    10    11	5 ;     CG2R61     CG2R67     CG2R61
   10    11    12	5 ;     CG2R67     CG2R61     CG2R61
   10    11    38	5 ;     CG2R67     CG2R61      HGR61
   12    11    38	5 ;     CG2R61     CG2R61      HGR61
   11    12    13	5 ;     CG2R61     CG2R61     CG2R61
   11    12    16	5 ;     CG2R61     CG2R61      SG311
   13    12    16	5 ;     CG2R61     CG2R61      SG311
   14    13    12	5 ;     CG2R61     CG2R61     CG2R61
   14    13    39	5 ;     CG2R61     CG2R61      HGR61
   12    13    39	5 ;     CG2R61     CG2R61      HGR61
   15    14    13	5 ;     CG2R61     CG2R61     CG2R61
   15    14    40	5 ;     CG2R61     CG2R61      HGR61
   13    14    40	5 ;     CG2R61     CG2R61      HGR61
   10    15    14	5 ;     CG2R67     CG2R61     CG2R61
   10    15    41	5 ;     CG2R67     CG2R61      HGR61
   14    15    41	5 ;     CG2R61     CG2R61      HGR61
   12    16    17	5 ;     CG2R61      SG311      CG331
   16    17    42	5 ;      SG311      CG331       HGA3
   16    17    43	5 ;      SG311      CG331       HGA3
   16    17    44	5 ;      SG311      CG331       HGA3
   42    17    43	5 ;       HGA3      CG331       HGA3
   42    17    44	5 ;       HGA3      CG331       HGA3
   43    17    44	5 ;       HGA3      CG331       HGA3
   19    18    26	5 ;      NG311     CG2D1O     CG2DC1
   19    18     3	5 ;      NG311     CG2D1O     CG3C31
   26    18     3	5 ;     CG2DC1     CG2D1O     CG3C31
   20    19    21	5 ;      CG314      NG311     HGPAM1
   20    19    18	5 ;      CG314      NG311     CG2D1O
   21    19    18	5 ;     HGPAM1      NG311     CG2D1O
   27    20    22	5 ;      NG3P3      CG314      NG2S0
   27    20    19	5 ;      NG3P3      CG314      NG311
   27    20    45	5 ;      NG3P3      CG314       HGA1
   22    20    19	5 ;      NG2S0      CG314      NG311
   22    20    45	5 ;      NG2S0      CG314       HGA1
   19    20    45	5 ;      NG311      CG314       HGA1
   23    22    20	5 ;      CG331      NG2S0      CG314
   23    22    24	5 ;      CG331      NG2S0      CG2O1
   20    22    24	5 ;      CG314      NG2S0      CG2O1
   22    23    46	5 ;      NG2S0      CG331       HGA3
   22    23    47	5 ;      NG2S0      CG331       HGA3
   22    23    48	5 ;      NG2S0      CG331       HGA3
   46    23    47	5 ;       HGA3      CG331       HGA3
   46    23    48	5 ;       HGA3      CG331       HGA3
   47    23    48	5 ;       HGA3      CG331       HGA3
   22    24    25	5 ;      NG2S0      CG2O1      OG2D1
   22    24    26	5 ;      NG2S0      CG2O1     CG2DC1
   25    24    26	5 ;      OG2D1      CG2O1     CG2DC1
   24    26    18	5 ;      CG2O1     CG2DC1     CG2D1O
   24    26    49	5 ;      CG2O1     CG2DC1       HGA4
   18    26    49	5 ;     CG2D1O     CG2DC1       HGA4
   29    27    28	5 ;       HGP2      NG3P3       HGP2
   29    27    20	5 ;       HGP2      NG3P3      CG314
   29    27    50	5 ;       HGP2      NG3P3       HGP2
   28    27    20	5 ;       HGP2      NG3P3      CG314
   28    27    50	5 ;       HGP2      NG3P3       HGP2
   20    27    50	5 ;      CG314      NG3P3       HGP2

[ dihedrals ]
;	ai	  aj	ak	  al funct			  c0			c1			  c2			c3			  c4			c5
    3     1     2    31	 9 ;     CG3C31     CG3C31     CG3C31       HGA2
    3     1     2    32	 9 ;     CG3C31     CG3C31     CG3C31       HGA2
    4     1     2     3	 9 ;     CG2R61     CG3C31     CG3C31     CG3C31
    4     1     2    31	 9 ;     CG2R61     CG3C31     CG3C31       HGA2
    4     1     2    32	 9 ;     CG2R61     CG3C31     CG3C31       HGA2
   30     1     2     3	 9 ;       HGA1     CG3C31     CG3C31     CG3C31
   30     1     2    31	 9 ;       HGA1     CG3C31     CG3C31       HGA2
   30     1     2    32	 9 ;       HGA1     CG3C31     CG3C31       HGA2
    2     1     3    18	 9 ;     CG3C31     CG3C31     CG3C31     CG2D1O
    2     1     3    33	 9 ;     CG3C31     CG3C31     CG3C31       HGA1
    4     1     3     2	 9 ;     CG2R61     CG3C31     CG3C31     CG3C31
    4     1     3    18	 9 ;     CG2R61     CG3C31     CG3C31     CG2D1O
    4     1     3    33	 9 ;     CG2R61     CG3C31     CG3C31       HGA1
   30     1     3     2	 9 ;       HGA1     CG3C31     CG3C31     CG3C31
   30     1     3    18	 9 ;       HGA1     CG3C31     CG3C31     CG2D1O
   30     1     3    33	 9 ;       HGA1     CG3C31     CG3C31       HGA1
    2     1     4     5	 9 ;     CG3C31     CG3C31     CG2R61     CG2R61
    2     1     4     9	 9 ;     CG3C31     CG3C31     CG2R61     CG2R61
    3     1     4     5	 9 ;     CG3C31     CG3C31     CG2R61     CG2R61
    3     1     4     9	 9 ;     CG3C31     CG3C31     CG2R61     CG2R61
   30     1     4     5	 9 ;       HGA1     CG3C31     CG2R61     CG2R61
   30     1     4     9	 9 ;       HGA1     CG3C31     CG2R61     CG2R61
    1     2     3    18	 9 ;     CG3C31     CG3C31     CG3C31     CG2D1O
    1     2     3    33	 9 ;     CG3C31     CG3C31     CG3C31       HGA1
   31     2     3    18	 9 ;       HGA2     CG3C31     CG3C31     CG2D1O
   31     2     3     1	 9 ;       HGA2     CG3C31     CG3C31     CG3C31
   31     2     3    33	 9 ;       HGA2     CG3C31     CG3C31       HGA1
   32     2     3    18	 9 ;       HGA2     CG3C31     CG3C31     CG2D1O
   32     2     3     1	 9 ;       HGA2     CG3C31     CG3C31     CG3C31
   32     2     3    33	 9 ;       HGA2     CG3C31     CG3C31       HGA1
    2     3    18    19	 9 ;     CG3C31     CG3C31     CG2D1O      NG311
    2     3    18    26	 9 ;     CG3C31     CG3C31     CG2D1O     CG2DC1
    1     3    18    19	 9 ;     CG3C31     CG3C31     CG2D1O      NG311
    1     3    18    26	 9 ;     CG3C31     CG3C31     CG2D1O     CG2DC1
   33     3    18    19	 9 ;       HGA1     CG3C31     CG2D1O      NG311
   33     3    18    26	 9 ;       HGA1     CG3C31     CG2D1O     CG2DC1
    1     4     5     6	 9 ;     CG3C31     CG2R61     CG2R61     CG2R61
    1     4     5    34	 9 ;     CG3C31     CG2R61     CG2R61      HGR61
    9     4     5     6	 9 ;     CG2R61     CG2R61     CG2R61     CG2R61
    9     4     5    34	 9 ;     CG2R61     CG2R61     CG2R61      HGR61
    1     4     9     8	 9 ;     CG3C31     CG2R61     CG2R61     CG2R61
    1     4     9    37	 9 ;     CG3C31     CG2R61     CG2R61      HGR61
    5     4     9     8	 9 ;     CG2R61     CG2R61     CG2R61     CG2R61
    5     4     9    37	 9 ;     CG2R61     CG2R61     CG2R61      HGR61
    4     5     6     7	 9 ;     CG2R61     CG2R61     CG2R61     CG2R67
    4     5     6    35	 9 ;     CG2R61     CG2R61     CG2R61      HGR61
   34     5     6     7	 9 ;      HGR61     CG2R61     CG2R61     CG2R67
   34     5     6    35	 9 ;      HGR61     CG2R61     CG2R61      HGR61
    5     6     7     8	 9 ;     CG2R61     CG2R61     CG2R67     CG2R61
    5     6     7    10	 9 ;     CG2R61     CG2R61     CG2R67     CG2R67
   35     6     7     8	 9 ;      HGR61     CG2R61     CG2R67     CG2R61
   35     6     7    10	 9 ;      HGR61     CG2R61     CG2R67     CG2R67
    6     7     8     9	 9 ;     CG2R61     CG2R67     CG2R61     CG2R61
    6     7     8    36	 9 ;     CG2R61     CG2R67     CG2R61      HGR61
   10     7     8     9	 9 ;     CG2R67     CG2R67     CG2R61     CG2R61
   10     7     8    36	 9 ;     CG2R67     CG2R67     CG2R61      HGR61
    6     7    10    15	 9 ;     CG2R61     CG2R67     CG2R67     CG2R61
    6     7    10    11	 9 ;     CG2R61     CG2R67     CG2R67     CG2R61
    8     7    10    15	 9 ;     CG2R61     CG2R67     CG2R67     CG2R61
    8     7    10    11	 9 ;     CG2R61     CG2R67     CG2R67     CG2R61
    7     8     9     4	 9 ;     CG2R67     CG2R61     CG2R61     CG2R61
    7     8     9    37	 9 ;     CG2R67     CG2R61     CG2R61      HGR61
   36     8     9     4	 9 ;      HGR61     CG2R61     CG2R61     CG2R61
   36     8     9    37	 9 ;      HGR61     CG2R61     CG2R61      HGR61
    7    10    15    14	 9 ;     CG2R67     CG2R67     CG2R61     CG2R61
    7    10    15    41	 9 ;     CG2R67     CG2R67     CG2R61      HGR61
   11    10    15    14	 9 ;     CG2R61     CG2R67     CG2R61     CG2R61
   11    10    15    41	 9 ;     CG2R61     CG2R67     CG2R61      HGR61
    7    10    11    12	 9 ;     CG2R67     CG2R67     CG2R61     CG2R61
    7    10    11    38	 9 ;     CG2R67     CG2R67     CG2R61      HGR61
   15    10    11    12	 9 ;     CG2R61     CG2R67     CG2R61     CG2R61
   15    10    11    38	 9 ;     CG2R61     CG2R67     CG2R61      HGR61
   10    11    12    13	 9 ;     CG2R67     CG2R61     CG2R61     CG2R61
   10    11    12    16	 9 ;     CG2R67     CG2R61     CG2R61      SG311
   38    11    12    13	 9 ;      HGR61     CG2R61     CG2R61     CG2R61
   38    11    12    16	 9 ;      HGR61     CG2R61     CG2R61      SG311
   11    12    13    14	 9 ;     CG2R61     CG2R61     CG2R61     CG2R61
   11    12    13    39	 9 ;     CG2R61     CG2R61     CG2R61      HGR61
   16    12    13    14	 9 ;      SG311     CG2R61     CG2R61     CG2R61
   16    12    13    39	 9 ;      SG311     CG2R61     CG2R61      HGR61
   11    12    16    17	 9 ;     CG2R61     CG2R61      SG311      CG331
   13    12    16    17	 9 ;     CG2R61     CG2R61      SG311      CG331
   12    13    14    15	 9 ;     CG2R61     CG2R61     CG2R61     CG2R61
   12    13    14    40	 9 ;     CG2R61     CG2R61     CG2R61      HGR61
   39    13    14    15	 9 ;      HGR61     CG2R61     CG2R61     CG2R61
   39    13    14    40	 9 ;      HGR61     CG2R61     CG2R61      HGR61
   13    14    15    10	 9 ;     CG2R61     CG2R61     CG2R61     CG2R67
   13    14    15    41	 9 ;     CG2R61     CG2R61     CG2R61      HGR61
   40    14    15    10	 9 ;      HGR61     CG2R61     CG2R61     CG2R67
   40    14    15    41	 9 ;      HGR61     CG2R61     CG2R61      HGR61
   12    16    17    42	 9 ;     CG2R61      SG311      CG331       HGA3
   12    16    17    43	 9 ;     CG2R61      SG311      CG331       HGA3
   12    16    17    44	 9 ;     CG2R61      SG311      CG331       HGA3
   26    18    19    20	 9 ;     CG2DC1     CG2D1O      NG311      CG314
   26    18    19    21	 9 ;     CG2DC1     CG2D1O      NG311     HGPAM1
    3    18    19    20	 9 ;     CG3C31     CG2D1O      NG311      CG314
    3    18    19    21	 9 ;     CG3C31     CG2D1O      NG311     HGPAM1
   19    18    26    24	 9 ;      NG311     CG2D1O     CG2DC1      CG2O1
   19    18    26    49	 9 ;      NG311     CG2D1O     CG2DC1       HGA4
    3    18    26    24	 9 ;     CG3C31     CG2D1O     CG2DC1      CG2O1
    3    18    26    49	 9 ;     CG3C31     CG2D1O     CG2DC1       HGA4
   21    19    20    27	 9 ;     HGPAM1      NG311      CG314      NG3P3
   21    19    20    22	 9 ;     HGPAM1      NG311      CG314      NG2S0
   21    19    20    45	 9 ;     HGPAM1      NG311      CG314       HGA1
   18    19    20    27	 9 ;     CG2D1O      NG311      CG314      NG3P3
   18    19    20    22	 9 ;     CG2D1O      NG311      CG314      NG2S0
   18    19    20    45	 9 ;     CG2D1O      NG311      CG314       HGA1
   22    20    27    29	 9 ;      NG2S0      CG314      NG3P3       HGP2
   22    20    27    28	 9 ;      NG2S0      CG314      NG3P3       HGP2
   22    20    27    50	 9 ;      NG2S0      CG314      NG3P3       HGP2
   19    20    27    29	 9 ;      NG311      CG314      NG3P3       HGP2
   19    20    27    28	 9 ;      NG311      CG314      NG3P3       HGP2
   19    20    27    50	 9 ;      NG311      CG314      NG3P3       HGP2
   45    20    27    29	 9 ;       HGA1      CG314      NG3P3       HGP2
   45    20    27    28	 9 ;       HGA1      CG314      NG3P3       HGP2
   45    20    27    50	 9 ;       HGA1      CG314      NG3P3       HGP2
   27    20    22    23	 9 ;      NG3P3      CG314      NG2S0      CG331
   27    20    22    24	 9 ;      NG3P3      CG314      NG2S0      CG2O1
   19    20    22    23	 9 ;      NG311      CG314      NG2S0      CG331
   19    20    22    24	 9 ;      NG311      CG314      NG2S0      CG2O1
   45    20    22    23	 9 ;       HGA1      CG314      NG2S0      CG331
   45    20    22    24	 9 ;       HGA1      CG314      NG2S0      CG2O1
   20    22    23    46	 9 ;      CG314      NG2S0      CG331       HGA3
   20    22    23    47	 9 ;      CG314      NG2S0      CG331       HGA3
   20    22    23    48	 9 ;      CG314      NG2S0      CG331       HGA3
   24    22    23    46	 9 ;      CG2O1      NG2S0      CG331       HGA3
   24    22    23    47	 9 ;      CG2O1      NG2S0      CG331       HGA3
   24    22    23    48	 9 ;      CG2O1      NG2S0      CG331       HGA3
   23    22    24    25	 9 ;      CG331      NG2S0      CG2O1      OG2D1
   23    22    24    26	 9 ;      CG331      NG2S0      CG2O1     CG2DC1
   20    22    24    25	 9 ;      CG314      NG2S0      CG2O1      OG2D1
   20    22    24    26	 9 ;      CG314      NG2S0      CG2O1     CG2DC1
   22    24    26    18	 9 ;      NG2S0      CG2O1     CG2DC1     CG2D1O
   22    24    26    49	 9 ;      NG2S0      CG2O1     CG2DC1       HGA4
   25    24    26    18	 9 ;      OG2D1      CG2O1     CG2DC1     CG2D1O
   25    24    26    49	 9 ;      OG2D1      CG2O1     CG2DC1       HGA4

[ dihedrals ]
;	ai	  aj	ak	  al funct			  c0			c1			  c2			c3
   18    26     3    19	 2
   24    26    22    25	 2

