; Created by cgenff_charmm2gmx.py

[ moleculetype ]
; Name			   nrexcl
LIG				 3

[ atoms ]
;	 nr		  type	resnr residue  atom   cgnr	   charge		mass  typeB    chargeB		massB
; residue	 1 LIG rtp LIG q	qsum
     1      NG311      1    LIG     N1      1     -0.625     14.007   ;
     2     HGPAM1      1    LIG     HN      2      0.328      1.008   ;
     3      CG311      1    LIG     C1      3      0.369     12.011   ;
     4     CG2DC1      1    LIG     C2      4      0.162     12.011   ;
     5     CG2DC1      1    LIG     C3      5     -0.174     12.011   ;
     6     CG2DC2      1    LIG     C4      6     -0.445     12.011   ;
     7     CG2D2O      1    LIG     C5      7      0.209     12.011   ;
     8     CG2DC2      1    LIG     C6      8     -0.220     12.011   ;
     9     CG2DC2      1    LIG     C7      9     -0.166     12.011   ;
    10     CG2DC1      1    LIG     C8     10     -0.195     12.011   ;
    11     CG2DC1      1    LIG     C9     11     -0.265     12.011   ;
    12      NG321      1    LIG     N2     12     -0.745     14.007   ;
    13     HGPAM2      1    LIG     H1     13      0.404      1.008   ;
    14     HGPAM2      1    LIG     H2     14      0.404      1.008   ;
    15       HGA1      1    LIG     H3     15      0.090      1.008   ;
    16       HGA4      1    LIG     H4     16      0.150      1.008   ;
    17       HGA4      1    LIG     H5     17      0.150      1.008   ;
    18       HGA4      1    LIG     H6     18      0.135      1.008   ;
    19       HGA4      1    LIG     H7     19      0.150      1.008   ;
    20       HGA4      1    LIG     H8     20      0.150      1.008   ;
    21       HGA4      1    LIG     H9     21      0.134      1.008   ;

[ bonds ]
;	ai	  aj funct			  c0			c1			  c2			c3
    1     2	 1 ;       NG311     HGPAM1
    1     7	 1 ;       NG311     CG2D2O
    1     3	 1 ;       NG311      CG311
    3    11	 1 ;       CG311     CG2DC1
    3     4	 1 ;       CG311     CG2DC1
    3    15	 1 ;       CG311       HGA1
    4     5	 1 ;      CG2DC1     CG2DC1
    4     8	 1 ;      CG2DC1     CG2DC2
    5     6	 1 ;      CG2DC1     CG2DC2
    5    16	 1 ;      CG2DC1       HGA4
    6     7	 1 ;      CG2DC2     CG2D2O
    6    17	 1 ;      CG2DC2       HGA4
    7    12	 1 ;      CG2D2O      NG321
    8     9	 1 ;      CG2DC2     CG2DC2
    8    18	 1 ;      CG2DC2       HGA4
    9    10	 1 ;      CG2DC2     CG2DC1
    9    19	 1 ;      CG2DC2       HGA4
   10    11	 1 ;      CG2DC1     CG2DC1
   10    20	 1 ;      CG2DC1       HGA4
   11    21	 1 ;      CG2DC1       HGA4
   12    14	 1 ;       NG321     HGPAM2
   12    13	 1 ;       NG321     HGPAM2

[ pairs ]
;	ai	  aj funct			  c0			c1			  c2			c3
    1    10	 1
    1    21	 1
    1     5	 1
    1     8	 1
    1    17	 1
    1    14	 1
    1    13	 1
    2    12	 1
    2     6	 1
    2    11	 1
    2     4	 1
    2    15	 1
    3    12	 1
    3     6	 1
    3    16	 1
    3     9	 1
    3    18	 1
    3    20	 1
    4     7	 1
    4    10	 1
    4    21	 1
    4    17	 1
    4    19	 1
    5    11	 1
    5    15	 1
    5     9	 1
    5    18	 1
    5    12	 1
    6     8	 1
    6    14	 1
    6    13	 1
    7    11	 1
    7    15	 1
    7    16	 1
    8    11	 1
    8    15	 1
    8    16	 1
    8    20	 1
    9    21	 1
   10    15	 1
   10    18	 1
   11    19	 1
   12    17	 1
   15    21	 1
   16    17	 1
   18    19	 1
   19    20	 1
   20    21	 1

[ angles ]
;	ai	  aj	ak funct			c0			  c1			c2			  c3
    2     1     7	5 ;     HGPAM1      NG311     CG2D2O
    2     1     3	5 ;     HGPAM1      NG311      CG311
    7     1     3	5 ;     CG2D2O      NG311      CG311
    1     3    11	5 ;      NG311      CG311     CG2DC1
    1     3     4	5 ;      NG311      CG311     CG2DC1
    1     3    15	5 ;      NG311      CG311       HGA1
   11     3     4	5 ;     CG2DC1      CG311     CG2DC1
   11     3    15	5 ;     CG2DC1      CG311       HGA1
    4     3    15	5 ;     CG2DC1      CG311       HGA1
    3     4     5	5 ;      CG311     CG2DC1     CG2DC1
    3     4     8	5 ;      CG311     CG2DC1     CG2DC2
    5     4     8	5 ;     CG2DC1     CG2DC1     CG2DC2
    6     5     4	5 ;     CG2DC2     CG2DC1     CG2DC1
    6     5    16	5 ;     CG2DC2     CG2DC1       HGA4
    4     5    16	5 ;     CG2DC1     CG2DC1       HGA4
    7     6     5	5 ;     CG2D2O     CG2DC2     CG2DC1
    7     6    17	5 ;     CG2D2O     CG2DC2       HGA4
    5     6    17	5 ;     CG2DC1     CG2DC2       HGA4
   12     7     1	5 ;      NG321     CG2D2O      NG311
   12     7     6	5 ;      NG321     CG2D2O     CG2DC2
    1     7     6	5 ;      NG311     CG2D2O     CG2DC2
    4     8     9	5 ;     CG2DC1     CG2DC2     CG2DC2
    4     8    18	5 ;     CG2DC1     CG2DC2       HGA4
    9     8    18	5 ;     CG2DC2     CG2DC2       HGA4
   10     9     8	5 ;     CG2DC1     CG2DC2     CG2DC2
   10     9    19	5 ;     CG2DC1     CG2DC2       HGA4
    8     9    19	5 ;     CG2DC2     CG2DC2       HGA4
   11    10     9	5 ;     CG2DC1     CG2DC1     CG2DC2
   11    10    20	5 ;     CG2DC1     CG2DC1       HGA4
    9    10    20	5 ;     CG2DC2     CG2DC1       HGA4
    3    11    10	5 ;      CG311     CG2DC1     CG2DC1
    3    11    21	5 ;      CG311     CG2DC1       HGA4
   10    11    21	5 ;     CG2DC1     CG2DC1       HGA4
   14    12    13	5 ;     HGPAM2      NG321     HGPAM2
   14    12     7	5 ;     HGPAM2      NG321     CG2D2O
   13    12     7	5 ;     HGPAM2      NG321     CG2D2O

[ dihedrals ]
;	ai	  aj	ak	  al funct			  c0			c1			  c2			c3			  c4			c5
    2     1     7    12	 9 ;     HGPAM1      NG311     CG2D2O      NG321
    2     1     7     6	 9 ;     HGPAM1      NG311     CG2D2O     CG2DC2
    3     1     7    12	 9 ;      CG311      NG311     CG2D2O      NG321
    3     1     7     6	 9 ;      CG311      NG311     CG2D2O     CG2DC2
    2     1     3    11	 9 ;     HGPAM1      NG311      CG311     CG2DC1
    2     1     3     4	 9 ;     HGPAM1      NG311      CG311     CG2DC1
    2     1     3    15	 9 ;     HGPAM1      NG311      CG311       HGA1
    7     1     3    11	 9 ;     CG2D2O      NG311      CG311     CG2DC1
    7     1     3     4	 9 ;     CG2D2O      NG311      CG311     CG2DC1
    7     1     3    15	 9 ;     CG2D2O      NG311      CG311       HGA1
    1     3    11    10	 9 ;      NG311      CG311     CG2DC1     CG2DC1
    1     3    11    21	 9 ;      NG311      CG311     CG2DC1       HGA4
    4     3    11    10	 9 ;     CG2DC1      CG311     CG2DC1     CG2DC1
    4     3    11    21	 9 ;     CG2DC1      CG311     CG2DC1       HGA4
   15     3    11    10	 9 ;       HGA1      CG311     CG2DC1     CG2DC1
   15     3    11    21	 9 ;       HGA1      CG311     CG2DC1       HGA4
    1     3     4     5	 9 ;      NG311      CG311     CG2DC1     CG2DC1
    1     3     4     8	 9 ;      NG311      CG311     CG2DC1     CG2DC2
   11     3     4     5	 9 ;     CG2DC1      CG311     CG2DC1     CG2DC1
   11     3     4     8	 9 ;     CG2DC1      CG311     CG2DC1     CG2DC2
   15     3     4     5	 9 ;       HGA1      CG311     CG2DC1     CG2DC1
   15     3     4     8	 9 ;       HGA1      CG311     CG2DC1     CG2DC2
    3     4     5     6	 9 ;      CG311     CG2DC1     CG2DC1     CG2DC2
    3     4     5    16	 9 ;      CG311     CG2DC1     CG2DC1       HGA4
    8     4     5     6	 9 ;     CG2DC2     CG2DC1     CG2DC1     CG2DC2
    8     4     5    16	 9 ;     CG2DC2     CG2DC1     CG2DC1       HGA4
    3     4     8     9	 9 ;      CG311     CG2DC1     CG2DC2     CG2DC2
    3     4     8    18	 9 ;      CG311     CG2DC1     CG2DC2       HGA4
    5     4     8     9	 9 ;     CG2DC1     CG2DC1     CG2DC2     CG2DC2
    5     4     8    18	 9 ;     CG2DC1     CG2DC1     CG2DC2       HGA4
    4     5     6     7	 9 ;     CG2DC1     CG2DC1     CG2DC2     CG2D2O
    4     5     6    17	 9 ;     CG2DC1     CG2DC1     CG2DC2       HGA4
   16     5     6     7	 9 ;       HGA4     CG2DC1     CG2DC2     CG2D2O
   16     5     6    17	 9 ;       HGA4     CG2DC1     CG2DC2       HGA4
    5     6     7    12	 9 ;     CG2DC1     CG2DC2     CG2D2O      NG321
    5     6     7     1	 9 ;     CG2DC1     CG2DC2     CG2D2O      NG311
   17     6     7    12	 9 ;       HGA4     CG2DC2     CG2D2O      NG321
   17     6     7     1	 9 ;       HGA4     CG2DC2     CG2D2O      NG311
    1     7    12    14	 9 ;      NG311     CG2D2O      NG321     HGPAM2
    1     7    12    13	 9 ;      NG311     CG2D2O      NG321     HGPAM2
    6     7    12    14	 9 ;     CG2DC2     CG2D2O      NG321     HGPAM2
    6     7    12    13	 9 ;     CG2DC2     CG2D2O      NG321     HGPAM2
    4     8     9    10	 9 ;     CG2DC1     CG2DC2     CG2DC2     CG2DC1
    4     8     9    19	 9 ;     CG2DC1     CG2DC2     CG2DC2       HGA4
   18     8     9    10	 9 ;       HGA4     CG2DC2     CG2DC2     CG2DC1
   18     8     9    19	 9 ;       HGA4     CG2DC2     CG2DC2       HGA4
    8     9    10    11	 9 ;     CG2DC2     CG2DC2     CG2DC1     CG2DC1
    8     9    10    20	 9 ;     CG2DC2     CG2DC2     CG2DC1       HGA4
   19     9    10    11	 9 ;       HGA4     CG2DC2     CG2DC1     CG2DC1
   19     9    10    20	 9 ;       HGA4     CG2DC2     CG2DC1       HGA4
    9    10    11     3	 9 ;     CG2DC2     CG2DC1     CG2DC1      CG311
    9    10    11    21	 9 ;     CG2DC2     CG2DC1     CG2DC1       HGA4
   20    10    11     3	 9 ;       HGA4     CG2DC1     CG2DC1      CG311
   20    10    11    21	 9 ;       HGA4     CG2DC1     CG2DC1       HGA4

[ dihedrals ]
;	ai	  aj	ak	  al funct			  c0			c1			  c2			c3
    7     6     1    12	 2

