GRoups of Organic Molecules in ACtion for Science
   21
    1LIG     N1    1  -1.211   0.230  -1.794
    1LIG     HN    2  -1.258   0.203  -1.880
    1LIG     C1    3  -1.140   0.141  -1.722
    1LIG     C2    4  -1.074   0.175  -1.603
    1LIG     C3    5  -1.083   0.307  -1.559
    1LIG     C4    6  -1.156   0.399  -1.633
    1LIG     C5    7  -1.218   0.357  -1.749
    1LIG     C6    8  -1.002   0.078  -1.531
    1LIG     C7    9  -0.996  -0.054  -1.577
    1LIG     C8   10  -1.061  -0.088  -1.695
    1LIG     C9   11  -1.132   0.009  -1.766
    1LIG     N2   12  -1.296   0.445  -1.823
    1LIG     H1   13  -1.298   0.533  -1.772
    1LIG     H2   14  -1.389   0.408  -1.840
    1LIG     H3   15  -1.160   0.246  -1.724
    1LIG     H4   16  -1.035   0.337  -1.472
    1LIG     H5   17  -1.165   0.497  -1.601
    1LIG     H6   18  -0.953   0.104  -1.444
    1LIG     H7   19  -0.943  -0.125  -1.524
    1LIG     H8   20  -1.056  -0.185  -1.730
    1LIG     H9   21  -1.179  -0.018  -1.854
   0.00000   0.00000   0.00000
