; Created by cgenff_charmm2gmx.py

[ moleculetype ]
; Name			   nrexcl
LIG				 3

[ atoms ]
;	 nr		  type	resnr residue  atom   cgnr	   charge		mass  typeB    chargeB		massB
; residue	 1 LIG rtp LIG q	qsum
     1      CG324      1    LIG     C1      1      0.208     12.011   ;
     2      NG3P2      1    LIG     N1      2     -0.446     14.007   ;
     3       HGP2      1    LIG     H1      3      0.341      1.008   ;
     4       HGP2      1    LIG     H2      4      0.341      1.008   ;
     5      CG301      1    LIG     C2      5      0.531     12.011   ;
     6      CG321      1    LIG     C3      6     -0.142     12.011   ;
     7      CG321      1    LIG     C4      7     -0.194     12.011   ;
     8      CG321      1    LIG     C5      8     -0.176     12.011   ;
     9      CG321      1    LIG     C6      9     -0.194     12.011   ;
    10      CG321      1    LIG     C7     10     -0.142     12.011   ;
    11     CG2R51      1    LIG     C8     11     -0.151     12.011   ;
    12     CG2R51      1    LIG     C9     12     -0.293     12.011   ;
    13     SG2R50      1    LIG      S     13      0.062     32.060   ;
    14     CG2R51      1    LIG    C10     14      0.221     12.011   ;
    15     CG2R51      1    LIG    C11     15     -0.324     12.011   ;
    16      CG311      1    LIG    C12     16     -0.151     12.011   ;
    17      CG331      1    LIG    C13     17     -0.260     12.011   ;
    18      CG331      1    LIG    C14     18     -0.260     12.011   ;
    19      CG311      1    LIG    C15     19      0.089     12.011   ;
    20      OG311      1    LIG     O1     20     -0.625     15.999   ;
    21       HGP1      1    LIG     H3     21      0.415      1.008   ;
    22      CG311      1    LIG    C16     22     -0.007     12.011   ;
    23      CG321      1    LIG    C17     23     -0.153     12.011   ;
    24     CG2R61      1    LIG    C18     24      0.057     12.011   ;
    25     CG2R61      1    LIG    C19     25     -0.218     12.011   ;
    26     CG2R66      1    LIG    C20     26      0.261     12.011   ;
    27       FGR1      1    LIG     F1     27     -0.210     18.998   ;
    28     CG2R61      1    LIG    C21     28     -0.240     12.011   ;
    29     CG2R66      1    LIG    C22     29      0.261     12.011   ;
    30       FGR1      1    LIG     F2     30     -0.210     18.998   ;
    31     CG2R61      1    LIG    C23     31     -0.218     12.011   ;
    32      NG2S1      1    LIG     N2     32     -0.339     14.007   ;
    33      CG2O1      1    LIG    C24     33      0.488     12.011   ;
    34      OG2D1      1    LIG     O2     34     -0.509     15.999   ;
    35      CG331      1    LIG    C25     35     -0.270     12.011   ;
    36       HGP1      1    LIG     H4     36      0.261      1.008   ;
    37       HGA2      1    LIG    HC2     37      0.090      1.008   ;
    38       HGA2      1    LIG    HC3     38      0.090      1.008   ;
    39       HGA2      1    LIG    HC4     39      0.090      1.008   ;
    40       HGA2      1    LIG    HC5     40      0.090      1.008   ;
    41       HGA2      1    LIG    HC6     41      0.090      1.008   ;
    42       HGA2      1    LIG    HC7     42      0.090      1.008   ;
    43       HGA2      1    LIG    HC8     43      0.090      1.008   ;
    44       HGA2      1    LIG    HC9     44      0.090      1.008   ;
    45       HGA2      1    LIG   HC10     45      0.090      1.008   ;
    46       HGA2      1    LIG   HC11     46      0.090      1.008   ;
    47       HGA2      1    LIG   HC12     47      0.090      1.008   ;
    48       HGA2      1    LIG   HC13     48      0.090      1.008   ;
    49      HGR52      1    LIG     HC     49      0.157      1.008   ;
    50      HGR51      1    LIG    HC1     50      0.165      1.008   ;
    51       HGA1      1    LIG   HC14     51      0.090      1.008   ;
    52       HGA1      1    LIG   HC15     52      0.090      1.008   ;
    53       HGA1      1    LIG   HC16     53      0.090      1.008   ;
    54       HGA2      1    LIG   HC17     54      0.090      1.008   ;
    55       HGA2      1    LIG   HC18     55      0.090      1.008   ;
    56      HGR62      1    LIG   HC19     56      0.174      1.008   ;
    57      HGR62      1    LIG   HC20     57      0.186      1.008   ;
    58      HGR62      1    LIG   HC21     58      0.174      1.008   ;
    59       HGA3      1    LIG   HC22     59      0.090      1.008   ;
    60       HGA3      1    LIG   HC23     60      0.090      1.008   ;
    61       HGA3      1    LIG   HC24     61      0.090      1.008   ;
    62       HGA3      1    LIG   HC25     62      0.090      1.008   ;
    63       HGA3      1    LIG   HC26     63      0.090      1.008   ;
    64       HGA3      1    LIG   HC27     64      0.090      1.008   ;
    65       HGA3      1    LIG   HC28     65      0.090      1.008   ;
    66       HGA3      1    LIG   HC29     66      0.090      1.008   ;
    67       HGA3      1    LIG   HC30     67      0.090      1.008   ;

[ bonds ]
;	ai	  aj funct			  c0			c1			  c2			c3
    1    19	 1 ;       CG324      CG311
    1     2	 1 ;       CG324      NG3P2
    1    37	 1 ;       CG324       HGA2
    1    38	 1 ;       CG324       HGA2
    2     3	 1 ;       NG3P2       HGP2
    2     5	 1 ;       NG3P2      CG301
    2     4	 1 ;       NG3P2       HGP2
    5    10	 1 ;       CG301      CG321
    5     6	 1 ;       CG301      CG321
    5    11	 1 ;       CG301     CG2R51
    6     7	 1 ;       CG321      CG321
    6    39	 1 ;       CG321       HGA2
    6    40	 1 ;       CG321       HGA2
    7     8	 1 ;       CG321      CG321
    7    41	 1 ;       CG321       HGA2
    7    42	 1 ;       CG321       HGA2
    8     9	 1 ;       CG321      CG321
    8    43	 1 ;       CG321       HGA2
    8    44	 1 ;       CG321       HGA2
    9    10	 1 ;       CG321      CG321
    9    45	 1 ;       CG321       HGA2
    9    46	 1 ;       CG321       HGA2
   10    47	 1 ;       CG321       HGA2
   10    48	 1 ;       CG321       HGA2
   11    15	 1 ;      CG2R51     CG2R51
   11    12	 1 ;      CG2R51     CG2R51
   12    13	 1 ;      CG2R51     SG2R50
   12    49	 1 ;      CG2R51      HGR52
   13    14	 1 ;      SG2R50     CG2R51
   14    15	 1 ;      CG2R51     CG2R51
   14    16	 1 ;      CG2R51      CG311
   15    50	 1 ;      CG2R51      HGR51
   16    18	 1 ;       CG311      CG331
   16    17	 1 ;       CG311      CG331
   16    51	 1 ;       CG311       HGA1
   17    59	 1 ;       CG331       HGA3
   17    60	 1 ;       CG331       HGA3
   17    61	 1 ;       CG331       HGA3
   18    65	 1 ;       CG331       HGA3
   18    66	 1 ;       CG331       HGA3
   18    67	 1 ;       CG331       HGA3
   19    20	 1 ;       CG311      OG311
   19    22	 1 ;       CG311      CG311
   19    52	 1 ;       CG311       HGA1
   20    21	 1 ;       OG311       HGP1
   22    32	 1 ;       CG311      NG2S1
   22    23	 1 ;       CG311      CG321
   22    53	 1 ;       CG311       HGA1
   23    24	 1 ;       CG321     CG2R61
   23    54	 1 ;       CG321       HGA2
   23    55	 1 ;       CG321       HGA2
   24    31	 1 ;      CG2R61     CG2R61
   24    25	 1 ;      CG2R61     CG2R61
   25    26	 1 ;      CG2R61     CG2R66
   25    56	 1 ;      CG2R61      HGR62
   26    28	 1 ;      CG2R66     CG2R61
   26    27	 1 ;      CG2R66       FGR1
   28    29	 1 ;      CG2R61     CG2R66
   28    57	 1 ;      CG2R61      HGR62
   29    30	 1 ;      CG2R66       FGR1
   29    31	 1 ;      CG2R66     CG2R61
   31    58	 1 ;      CG2R61      HGR62
   32    33	 1 ;       NG2S1      CG2O1
   32    36	 1 ;       NG2S1       HGP1
   33    35	 1 ;       CG2O1      CG331
   33    34	 1 ;       CG2O1      OG2D1
   35    62	 1 ;       CG331       HGA3
   35    63	 1 ;       CG331       HGA3
   35    64	 1 ;       CG331       HGA3

[ pairs ]
;	ai	  aj funct			  c0			c1			  c2			c3
    1    10	 1
    1     6	 1
    1    11	 1
    1    21	 1
    1    32	 1
    1    23	 1
    1    53	 1
    2    20	 1
    2    22	 1
    2    52	 1
    2     9	 1
    2    47	 1
    2    48	 1
    2     7	 1
    2    39	 1
    2    40	 1
    2    15	 1
    2    12	 1
    3    19	 1
    3    37	 1
    3    38	 1
    3    10	 1
    3     6	 1
    3    11	 1
    4    19	 1
    4    37	 1
    4    38	 1
    4    10	 1
    4     6	 1
    4    11	 1
    5    19	 1
    5    37	 1
    5    38	 1
    5     8	 1
    5    41	 1
    5    42	 1
    5    45	 1
    5    46	 1
    5    14	 1
    5    50	 1
    5    13	 1
    5    49	 1
    6     9	 1
    6    47	 1
    6    48	 1
    6    15	 1
    6    12	 1
    6    43	 1
    6    44	 1
    7    10	 1
    7    11	 1
    7    45	 1
    7    46	 1
    8    39	 1
    8    40	 1
    8    47	 1
    8    48	 1
    9    11	 1
    9    41	 1
    9    42	 1
   10    39	 1
   10    40	 1
   10    15	 1
   10    12	 1
   10    43	 1
   10    44	 1
   11    47	 1
   11    48	 1
   11    39	 1
   11    40	 1
   11    16	 1
   12    50	 1
   12    16	 1
   13    50	 1
   13    18	 1
   13    17	 1
   13    51	 1
   14    49	 1
   14    65	 1
   14    66	 1
   14    67	 1
   14    59	 1
   14    60	 1
   14    61	 1
   15    49	 1
   15    18	 1
   15    17	 1
   15    51	 1
   16    50	 1
   17    65	 1
   17    66	 1
   17    67	 1
   18    59	 1
   18    60	 1
   18    61	 1
   19    33	 1
   19    36	 1
   19    24	 1
   19    54	 1
   19    55	 1
   20    37	 1
   20    38	 1
   20    32	 1
   20    23	 1
   20    53	 1
   21    22	 1
   21    52	 1
   22    37	 1
   22    38	 1
   22    31	 1
   22    25	 1
   22    35	 1
   22    34	 1
   23    52	 1
   23    33	 1
   23    36	 1
   23    29	 1
   23    58	 1
   23    26	 1
   23    56	 1
   24    32	 1
   24    53	 1
   24    28	 1
   24    27	 1
   24    30	 1
   25    54	 1
   25    55	 1
   25    29	 1
   25    58	 1
   25    57	 1
   26    31	 1
   26    30	 1
   27    56	 1
   27    29	 1
   27    57	 1
   28    56	 1
   28    58	 1
   30    57	 1
   30    58	 1
   31    54	 1
   31    55	 1
   31    56	 1
   31    57	 1
   32    52	 1
   32    54	 1
   32    55	 1
   32    62	 1
   32    63	 1
   32    64	 1
   33    53	 1
   34    36	 1
   34    62	 1
   34    63	 1
   34    64	 1
   35    36	 1
   36    53	 1
   37    52	 1
   38    52	 1
   39    41	 1
   39    42	 1
   40    41	 1
   40    42	 1
   41    43	 1
   41    44	 1
   42    43	 1
   42    44	 1
   43    45	 1
   43    46	 1
   44    45	 1
   44    46	 1
   45    47	 1
   45    48	 1
   46    47	 1
   46    48	 1
   51    65	 1
   51    66	 1
   51    67	 1
   51    59	 1
   51    60	 1
   51    61	 1
   52    53	 1
   53    54	 1
   53    55	 1

[ angles ]
;	ai	  aj	ak funct			c0			  c1			c2			  c3
   19     1     2	5 ;      CG311      CG324      NG3P2
   19     1    37	5 ;      CG311      CG324       HGA2
   19     1    38	5 ;      CG311      CG324       HGA2
    2     1    37	5 ;      NG3P2      CG324       HGA2
    2     1    38	5 ;      NG3P2      CG324       HGA2
   37     1    38	5 ;       HGA2      CG324       HGA2
    1     2     3	5 ;      CG324      NG3P2       HGP2
    1     2     5	5 ;      CG324      NG3P2      CG301
    1     2     4	5 ;      CG324      NG3P2       HGP2
    3     2     5	5 ;       HGP2      NG3P2      CG301
    3     2     4	5 ;       HGP2      NG3P2       HGP2
    5     2     4	5 ;      CG301      NG3P2       HGP2
   10     5     2	5 ;      CG321      CG301      NG3P2
   10     5     6	5 ;      CG321      CG301      CG321
   10     5    11	5 ;      CG321      CG301     CG2R51
    2     5     6	5 ;      NG3P2      CG301      CG321
    2     5    11	5 ;      NG3P2      CG301     CG2R51
    6     5    11	5 ;      CG321      CG301     CG2R51
    7     6     5	5 ;      CG321      CG321      CG301
    7     6    39	5 ;      CG321      CG321       HGA2
    7     6    40	5 ;      CG321      CG321       HGA2
    5     6    39	5 ;      CG301      CG321       HGA2
    5     6    40	5 ;      CG301      CG321       HGA2
   39     6    40	5 ;       HGA2      CG321       HGA2
    8     7     6	5 ;      CG321      CG321      CG321
    8     7    41	5 ;      CG321      CG321       HGA2
    8     7    42	5 ;      CG321      CG321       HGA2
    6     7    41	5 ;      CG321      CG321       HGA2
    6     7    42	5 ;      CG321      CG321       HGA2
   41     7    42	5 ;       HGA2      CG321       HGA2
    9     8     7	5 ;      CG321      CG321      CG321
    9     8    43	5 ;      CG321      CG321       HGA2
    9     8    44	5 ;      CG321      CG321       HGA2
    7     8    43	5 ;      CG321      CG321       HGA2
    7     8    44	5 ;      CG321      CG321       HGA2
   43     8    44	5 ;       HGA2      CG321       HGA2
    8     9    10	5 ;      CG321      CG321      CG321
    8     9    45	5 ;      CG321      CG321       HGA2
    8     9    46	5 ;      CG321      CG321       HGA2
   10     9    45	5 ;      CG321      CG321       HGA2
   10     9    46	5 ;      CG321      CG321       HGA2
   45     9    46	5 ;       HGA2      CG321       HGA2
    9    10     5	5 ;      CG321      CG321      CG301
    9    10    47	5 ;      CG321      CG321       HGA2
    9    10    48	5 ;      CG321      CG321       HGA2
    5    10    47	5 ;      CG301      CG321       HGA2
    5    10    48	5 ;      CG301      CG321       HGA2
   47    10    48	5 ;       HGA2      CG321       HGA2
    5    11    15	5 ;      CG301     CG2R51     CG2R51
    5    11    12	5 ;      CG301     CG2R51     CG2R51
   15    11    12	5 ;     CG2R51     CG2R51     CG2R51
   11    12    13	5 ;     CG2R51     CG2R51     SG2R50
   11    12    49	5 ;     CG2R51     CG2R51      HGR52
   13    12    49	5 ;     SG2R50     CG2R51      HGR52
   14    13    12	5 ;     CG2R51     SG2R50     CG2R51
   15    14    16	5 ;     CG2R51     CG2R51      CG311
   15    14    13	5 ;     CG2R51     CG2R51     SG2R50
   16    14    13	5 ;      CG311     CG2R51     SG2R50
   11    15    14	5 ;     CG2R51     CG2R51     CG2R51
   11    15    50	5 ;     CG2R51     CG2R51      HGR51
   14    15    50	5 ;     CG2R51     CG2R51      HGR51
   18    16    14	5 ;      CG331      CG311     CG2R51
   18    16    17	5 ;      CG331      CG311      CG331
   18    16    51	5 ;      CG331      CG311       HGA1
   14    16    17	5 ;     CG2R51      CG311      CG331
   14    16    51	5 ;     CG2R51      CG311       HGA1
   17    16    51	5 ;      CG331      CG311       HGA1
   16    17    59	5 ;      CG311      CG331       HGA3
   16    17    60	5 ;      CG311      CG331       HGA3
   16    17    61	5 ;      CG311      CG331       HGA3
   59    17    60	5 ;       HGA3      CG331       HGA3
   59    17    61	5 ;       HGA3      CG331       HGA3
   60    17    61	5 ;       HGA3      CG331       HGA3
   16    18    65	5 ;      CG311      CG331       HGA3
   16    18    66	5 ;      CG311      CG331       HGA3
   16    18    67	5 ;      CG311      CG331       HGA3
   65    18    66	5 ;       HGA3      CG331       HGA3
   65    18    67	5 ;       HGA3      CG331       HGA3
   66    18    67	5 ;       HGA3      CG331       HGA3
   20    19     1	5 ;      OG311      CG311      CG324
   20    19    22	5 ;      OG311      CG311      CG311
   20    19    52	5 ;      OG311      CG311       HGA1
    1    19    22	5 ;      CG324      CG311      CG311
    1    19    52	5 ;      CG324      CG311       HGA1
   22    19    52	5 ;      CG311      CG311       HGA1
   21    20    19	5 ;       HGP1      OG311      CG311
   32    22    19	5 ;      NG2S1      CG311      CG311
   32    22    23	5 ;      NG2S1      CG311      CG321
   32    22    53	5 ;      NG2S1      CG311       HGA1
   19    22    23	5 ;      CG311      CG311      CG321
   19    22    53	5 ;      CG311      CG311       HGA1
   23    22    53	5 ;      CG321      CG311       HGA1
   22    23    24	5 ;      CG311      CG321     CG2R61
   22    23    54	5 ;      CG311      CG321       HGA2
   22    23    55	5 ;      CG311      CG321       HGA2
   24    23    54	5 ;     CG2R61      CG321       HGA2
   24    23    55	5 ;     CG2R61      CG321       HGA2
   54    23    55	5 ;       HGA2      CG321       HGA2
   31    24    23	5 ;     CG2R61     CG2R61      CG321
   31    24    25	5 ;     CG2R61     CG2R61     CG2R61
   23    24    25	5 ;      CG321     CG2R61     CG2R61
   24    25    26	5 ;     CG2R61     CG2R61     CG2R66
   24    25    56	5 ;     CG2R61     CG2R61      HGR62
   26    25    56	5 ;     CG2R66     CG2R61      HGR62
   28    26    27	5 ;     CG2R61     CG2R66       FGR1
   28    26    25	5 ;     CG2R61     CG2R66     CG2R61
   27    26    25	5 ;       FGR1     CG2R66     CG2R61
   29    28    26	5 ;     CG2R66     CG2R61     CG2R66
   29    28    57	5 ;     CG2R66     CG2R61      HGR62
   26    28    57	5 ;     CG2R66     CG2R61      HGR62
   30    29    28	5 ;       FGR1     CG2R66     CG2R61
   30    29    31	5 ;       FGR1     CG2R66     CG2R61
   28    29    31	5 ;     CG2R61     CG2R66     CG2R61
   29    31    24	5 ;     CG2R66     CG2R61     CG2R61
   29    31    58	5 ;     CG2R66     CG2R61      HGR62
   24    31    58	5 ;     CG2R61     CG2R61      HGR62
   33    32    36	5 ;      CG2O1      NG2S1       HGP1
   33    32    22	5 ;      CG2O1      NG2S1      CG311
   36    32    22	5 ;       HGP1      NG2S1      CG311
   35    33    34	5 ;      CG331      CG2O1      OG2D1
   35    33    32	5 ;      CG331      CG2O1      NG2S1
   34    33    32	5 ;      OG2D1      CG2O1      NG2S1
   33    35    62	5 ;      CG2O1      CG331       HGA3
   33    35    63	5 ;      CG2O1      CG331       HGA3
   33    35    64	5 ;      CG2O1      CG331       HGA3
   62    35    63	5 ;       HGA3      CG331       HGA3
   62    35    64	5 ;       HGA3      CG331       HGA3
   63    35    64	5 ;       HGA3      CG331       HGA3

[ dihedrals ]
;	ai	  aj	ak	  al funct			  c0			c1			  c2			c3			  c4			c5
    2     1    19    20	 9 ;      NG3P2      CG324      CG311      OG311
    2     1    19    22	 9 ;      NG3P2      CG324      CG311      CG311
    2     1    19    52	 9 ;      NG3P2      CG324      CG311       HGA1
   37     1    19    20	 9 ;       HGA2      CG324      CG311      OG311
   37     1    19    22	 9 ;       HGA2      CG324      CG311      CG311
   37     1    19    52	 9 ;       HGA2      CG324      CG311       HGA1
   38     1    19    20	 9 ;       HGA2      CG324      CG311      OG311
   38     1    19    22	 9 ;       HGA2      CG324      CG311      CG311
   38     1    19    52	 9 ;       HGA2      CG324      CG311       HGA1
   19     1     2     3	 9 ;      CG311      CG324      NG3P2       HGP2
   19     1     2     5	 9 ;      CG311      CG324      NG3P2      CG301
   19     1     2     4	 9 ;      CG311      CG324      NG3P2       HGP2
   37     1     2     3	 9 ;       HGA2      CG324      NG3P2       HGP2
   37     1     2     5	 9 ;       HGA2      CG324      NG3P2      CG301
   37     1     2     4	 9 ;       HGA2      CG324      NG3P2       HGP2
   38     1     2     3	 9 ;       HGA2      CG324      NG3P2       HGP2
   38     1     2     5	 9 ;       HGA2      CG324      NG3P2      CG301
   38     1     2     4	 9 ;       HGA2      CG324      NG3P2       HGP2
    1     2     5    10	 9 ;      CG324      NG3P2      CG301      CG321
    1     2     5     6	 9 ;      CG324      NG3P2      CG301      CG321
    1     2     5    11	 9 ;      CG324      NG3P2      CG301     CG2R51
    3     2     5    10	 9 ;       HGP2      NG3P2      CG301      CG321
    3     2     5     6	 9 ;       HGP2      NG3P2      CG301      CG321
    3     2     5    11	 9 ;       HGP2      NG3P2      CG301     CG2R51
    4     2     5    10	 9 ;       HGP2      NG3P2      CG301      CG321
    4     2     5     6	 9 ;       HGP2      NG3P2      CG301      CG321
    4     2     5    11	 9 ;       HGP2      NG3P2      CG301     CG2R51
    2     5    10     9	 9 ;      NG3P2      CG301      CG321      CG321
    2     5    10    47	 9 ;      NG3P2      CG301      CG321       HGA2
    2     5    10    48	 9 ;      NG3P2      CG301      CG321       HGA2
    6     5    10     9	 9 ;      CG321      CG301      CG321      CG321
    6     5    10    47	 9 ;      CG321      CG301      CG321       HGA2
    6     5    10    48	 9 ;      CG321      CG301      CG321       HGA2
   11     5    10     9	 9 ;     CG2R51      CG301      CG321      CG321
   11     5    10    47	 9 ;     CG2R51      CG301      CG321       HGA2
   11     5    10    48	 9 ;     CG2R51      CG301      CG321       HGA2
   10     5     6     7	 9 ;      CG321      CG301      CG321      CG321
   10     5     6    39	 9 ;      CG321      CG301      CG321       HGA2
   10     5     6    40	 9 ;      CG321      CG301      CG321       HGA2
    2     5     6     7	 9 ;      NG3P2      CG301      CG321      CG321
    2     5     6    39	 9 ;      NG3P2      CG301      CG321       HGA2
    2     5     6    40	 9 ;      NG3P2      CG301      CG321       HGA2
   11     5     6     7	 9 ;     CG2R51      CG301      CG321      CG321
   11     5     6    39	 9 ;     CG2R51      CG301      CG321       HGA2
   11     5     6    40	 9 ;     CG2R51      CG301      CG321       HGA2
   10     5    11    15	 9 ;      CG321      CG301     CG2R51     CG2R51
   10     5    11    12	 9 ;      CG321      CG301     CG2R51     CG2R51
    2     5    11    15	 9 ;      NG3P2      CG301     CG2R51     CG2R51
    2     5    11    12	 9 ;      NG3P2      CG301     CG2R51     CG2R51
    6     5    11    15	 9 ;      CG321      CG301     CG2R51     CG2R51
    6     5    11    12	 9 ;      CG321      CG301     CG2R51     CG2R51
    5     6     7     8	 9 ;      CG301      CG321      CG321      CG321
    5     6     7    41	 9 ;      CG301      CG321      CG321       HGA2
    5     6     7    42	 9 ;      CG301      CG321      CG321       HGA2
   39     6     7     8	 9 ;       HGA2      CG321      CG321      CG321
   39     6     7    41	 9 ;       HGA2      CG321      CG321       HGA2
   39     6     7    42	 9 ;       HGA2      CG321      CG321       HGA2
   40     6     7     8	 9 ;       HGA2      CG321      CG321      CG321
   40     6     7    41	 9 ;       HGA2      CG321      CG321       HGA2
   40     6     7    42	 9 ;       HGA2      CG321      CG321       HGA2
    6     7     8     9	 9 ;      CG321      CG321      CG321      CG321
    6     7     8    43	 9 ;      CG321      CG321      CG321       HGA2
    6     7     8    44	 9 ;      CG321      CG321      CG321       HGA2
   41     7     8     9	 9 ;       HGA2      CG321      CG321      CG321
   41     7     8    43	 9 ;       HGA2      CG321      CG321       HGA2
   41     7     8    44	 9 ;       HGA2      CG321      CG321       HGA2
   42     7     8     9	 9 ;       HGA2      CG321      CG321      CG321
   42     7     8    43	 9 ;       HGA2      CG321      CG321       HGA2
   42     7     8    44	 9 ;       HGA2      CG321      CG321       HGA2
    7     8     9    10	 9 ;      CG321      CG321      CG321      CG321
    7     8     9    45	 9 ;      CG321      CG321      CG321       HGA2
    7     8     9    46	 9 ;      CG321      CG321      CG321       HGA2
   43     8     9    10	 9 ;       HGA2      CG321      CG321      CG321
   43     8     9    45	 9 ;       HGA2      CG321      CG321       HGA2
   43     8     9    46	 9 ;       HGA2      CG321      CG321       HGA2
   44     8     9    10	 9 ;       HGA2      CG321      CG321      CG321
   44     8     9    45	 9 ;       HGA2      CG321      CG321       HGA2
   44     8     9    46	 9 ;       HGA2      CG321      CG321       HGA2
    8     9    10     5	 9 ;      CG321      CG321      CG321      CG301
    8     9    10    47	 9 ;      CG321      CG321      CG321       HGA2
    8     9    10    48	 9 ;      CG321      CG321      CG321       HGA2
   45     9    10     5	 9 ;       HGA2      CG321      CG321      CG301
   45     9    10    47	 9 ;       HGA2      CG321      CG321       HGA2
   45     9    10    48	 9 ;       HGA2      CG321      CG321       HGA2
   46     9    10     5	 9 ;       HGA2      CG321      CG321      CG301
   46     9    10    47	 9 ;       HGA2      CG321      CG321       HGA2
   46     9    10    48	 9 ;       HGA2      CG321      CG321       HGA2
    5    11    15    14	 9 ;      CG301     CG2R51     CG2R51     CG2R51
    5    11    15    50	 9 ;      CG301     CG2R51     CG2R51      HGR51
   12    11    15    14	 9 ;     CG2R51     CG2R51     CG2R51     CG2R51
   12    11    15    50	 9 ;     CG2R51     CG2R51     CG2R51      HGR51
    5    11    12    13	 9 ;      CG301     CG2R51     CG2R51     SG2R50
    5    11    12    49	 9 ;      CG301     CG2R51     CG2R51      HGR52
   15    11    12    13	 9 ;     CG2R51     CG2R51     CG2R51     SG2R50
   15    11    12    49	 9 ;     CG2R51     CG2R51     CG2R51      HGR52
   11    12    13    14	 9 ;     CG2R51     CG2R51     SG2R50     CG2R51
   49    12    13    14	 9 ;      HGR52     CG2R51     SG2R50     CG2R51
   12    13    14    15	 9 ;     CG2R51     SG2R50     CG2R51     CG2R51
   12    13    14    16	 9 ;     CG2R51     SG2R50     CG2R51      CG311
   16    14    15    11	 9 ;      CG311     CG2R51     CG2R51     CG2R51
   16    14    15    50	 9 ;      CG311     CG2R51     CG2R51      HGR51
   13    14    15    11	 9 ;     SG2R50     CG2R51     CG2R51     CG2R51
   13    14    15    50	 9 ;     SG2R50     CG2R51     CG2R51      HGR51
   15    14    16    18	 9 ;     CG2R51     CG2R51      CG311      CG331
   15    14    16    17	 9 ;     CG2R51     CG2R51      CG311      CG331
   15    14    16    51	 9 ;     CG2R51     CG2R51      CG311       HGA1
   13    14    16    18	 9 ;     SG2R50     CG2R51      CG311      CG331
   13    14    16    17	 9 ;     SG2R50     CG2R51      CG311      CG331
   13    14    16    51	 9 ;     SG2R50     CG2R51      CG311       HGA1
   14    16    18    65	 9 ;     CG2R51      CG311      CG331       HGA3
   14    16    18    66	 9 ;     CG2R51      CG311      CG331       HGA3
   14    16    18    67	 9 ;     CG2R51      CG311      CG331       HGA3
   17    16    18    65	 9 ;      CG331      CG311      CG331       HGA3
   17    16    18    66	 9 ;      CG331      CG311      CG331       HGA3
   17    16    18    67	 9 ;      CG331      CG311      CG331       HGA3
   51    16    18    65	 9 ;       HGA1      CG311      CG331       HGA3
   51    16    18    66	 9 ;       HGA1      CG311      CG331       HGA3
   51    16    18    67	 9 ;       HGA1      CG311      CG331       HGA3
   18    16    17    59	 9 ;      CG331      CG311      CG331       HGA3
   18    16    17    60	 9 ;      CG331      CG311      CG331       HGA3
   18    16    17    61	 9 ;      CG331      CG311      CG331       HGA3
   14    16    17    59	 9 ;     CG2R51      CG311      CG331       HGA3
   14    16    17    60	 9 ;     CG2R51      CG311      CG331       HGA3
   14    16    17    61	 9 ;     CG2R51      CG311      CG331       HGA3
   51    16    17    59	 9 ;       HGA1      CG311      CG331       HGA3
   51    16    17    60	 9 ;       HGA1      CG311      CG331       HGA3
   51    16    17    61	 9 ;       HGA1      CG311      CG331       HGA3
    1    19    20    21	 9 ;      CG324      CG311      OG311       HGP1
   22    19    20    21	 9 ;      CG311      CG311      OG311       HGP1
   52    19    20    21	 9 ;       HGA1      CG311      OG311       HGP1
   20    19    22    32	 9 ;      OG311      CG311      CG311      NG2S1
   20    19    22    23	 9 ;      OG311      CG311      CG311      CG321
   20    19    22    53	 9 ;      OG311      CG311      CG311       HGA1
    1    19    22    32	 9 ;      CG324      CG311      CG311      NG2S1
    1    19    22    23	 9 ;      CG324      CG311      CG311      CG321
    1    19    22    53	 9 ;      CG324      CG311      CG311       HGA1
   52    19    22    32	 9 ;       HGA1      CG311      CG311      NG2S1
   52    19    22    23	 9 ;       HGA1      CG311      CG311      CG321
   52    19    22    53	 9 ;       HGA1      CG311      CG311       HGA1
   19    22    32    33	 9 ;      CG311      CG311      NG2S1      CG2O1
   19    22    32    36	 9 ;      CG311      CG311      NG2S1       HGP1
   23    22    32    33	 9 ;      CG321      CG311      NG2S1      CG2O1
   23    22    32    36	 9 ;      CG321      CG311      NG2S1       HGP1
   53    22    32    33	 9 ;       HGA1      CG311      NG2S1      CG2O1
   53    22    32    36	 9 ;       HGA1      CG311      NG2S1       HGP1
   32    22    23    24	 9 ;      NG2S1      CG311      CG321     CG2R61
   32    22    23    54	 9 ;      NG2S1      CG311      CG321       HGA2
   32    22    23    55	 9 ;      NG2S1      CG311      CG321       HGA2
   19    22    23    24	 9 ;      CG311      CG311      CG321     CG2R61
   19    22    23    54	 9 ;      CG311      CG311      CG321       HGA2
   19    22    23    55	 9 ;      CG311      CG311      CG321       HGA2
   53    22    23    24	 9 ;       HGA1      CG311      CG321     CG2R61
   53    22    23    54	 9 ;       HGA1      CG311      CG321       HGA2
   53    22    23    55	 9 ;       HGA1      CG311      CG321       HGA2
   22    23    24    31	 9 ;      CG311      CG321     CG2R61     CG2R61
   22    23    24    25	 9 ;      CG311      CG321     CG2R61     CG2R61
   54    23    24    31	 9 ;       HGA2      CG321     CG2R61     CG2R61
   54    23    24    25	 9 ;       HGA2      CG321     CG2R61     CG2R61
   55    23    24    31	 9 ;       HGA2      CG321     CG2R61     CG2R61
   55    23    24    25	 9 ;       HGA2      CG321     CG2R61     CG2R61
   23    24    31    29	 9 ;      CG321     CG2R61     CG2R61     CG2R66
   23    24    31    58	 9 ;      CG321     CG2R61     CG2R61      HGR62
   25    24    31    29	 9 ;     CG2R61     CG2R61     CG2R61     CG2R66
   25    24    31    58	 9 ;     CG2R61     CG2R61     CG2R61      HGR62
   31    24    25    26	 9 ;     CG2R61     CG2R61     CG2R61     CG2R66
   31    24    25    56	 9 ;     CG2R61     CG2R61     CG2R61      HGR62
   23    24    25    26	 9 ;      CG321     CG2R61     CG2R61     CG2R66
   23    24    25    56	 9 ;      CG321     CG2R61     CG2R61      HGR62
   24    25    26    28	 9 ;     CG2R61     CG2R61     CG2R66     CG2R61
   24    25    26    27	 9 ;     CG2R61     CG2R61     CG2R66       FGR1
   56    25    26    28	 9 ;      HGR62     CG2R61     CG2R66     CG2R61
   56    25    26    27	 9 ;      HGR62     CG2R61     CG2R66       FGR1
   27    26    28    29	 9 ;       FGR1     CG2R66     CG2R61     CG2R66
   27    26    28    57	 9 ;       FGR1     CG2R66     CG2R61      HGR62
   25    26    28    29	 9 ;     CG2R61     CG2R66     CG2R61     CG2R66
   25    26    28    57	 9 ;     CG2R61     CG2R66     CG2R61      HGR62
   26    28    29    30	 9 ;     CG2R66     CG2R61     CG2R66       FGR1
   26    28    29    31	 9 ;     CG2R66     CG2R61     CG2R66     CG2R61
   57    28    29    30	 9 ;      HGR62     CG2R61     CG2R66       FGR1
   57    28    29    31	 9 ;      HGR62     CG2R61     CG2R66     CG2R61
   30    29    31    24	 9 ;       FGR1     CG2R66     CG2R61     CG2R61
   30    29    31    58	 9 ;       FGR1     CG2R66     CG2R61      HGR62
   28    29    31    24	 9 ;     CG2R61     CG2R66     CG2R61     CG2R61
   28    29    31    58	 9 ;     CG2R61     CG2R66     CG2R61      HGR62
   36    32    33    35	 9 ;       HGP1      NG2S1      CG2O1      CG331
   36    32    33    34	 9 ;       HGP1      NG2S1      CG2O1      OG2D1
   22    32    33    35	 9 ;      CG311      NG2S1      CG2O1      CG331
   22    32    33    34	 9 ;      CG311      NG2S1      CG2O1      OG2D1
   34    33    35    62	 9 ;      OG2D1      CG2O1      CG331       HGA3
   34    33    35    63	 9 ;      OG2D1      CG2O1      CG331       HGA3
   34    33    35    64	 9 ;      OG2D1      CG2O1      CG331       HGA3
   32    33    35    62	 9 ;      NG2S1      CG2O1      CG331       HGA3
   32    33    35    63	 9 ;      NG2S1      CG2O1      CG331       HGA3
   32    33    35    64	 9 ;      NG2S1      CG2O1      CG331       HGA3

[ dihedrals ]
;	ai	  aj	ak	  al funct			  c0			c1			  c2			c3
   33    35    32    34	 2

