Gyas ROwers Mature At Cryogenic Speed
   67
    1LIG     C1    1  -1.260   0.687  -1.656
    1LIG     N1    2  -1.347   0.812  -1.652
    1LIG     H1    3  -1.293   0.893  -1.687
    1LIG     H2    4  -1.362   0.833  -1.551
    1LIG     C2    5  -1.484   0.801  -1.721
    1LIG     C3    6  -1.549   0.943  -1.732
    1LIG     C4    7  -1.480   1.041  -1.827
    1LIG     C5    8  -1.457   0.982  -1.965
    1LIG     C6    9  -1.383   0.849  -1.956
    1LIG     C7   10  -1.460   0.751  -1.867
    1LIG     C8   11  -1.579   0.709  -1.640
    1LIG     C9   12  -1.661   0.753  -1.537
    1LIG      S   13  -1.753   0.630  -1.463
    1LIG    C10   14  -1.679   0.506  -1.558
    1LIG    C11   15  -1.594   0.563  -1.652
    1LIG    C12   16  -1.715   0.363  -1.522
    1LIG    C13   17  -1.857   0.318  -1.555
    1LIG    C14   18  -1.616   0.263  -1.585
    1LIG    C15   19  -1.214   0.637  -1.517
    1LIG     O1   20  -1.084   0.699  -1.495
    1LIG     H3   21  -1.060   0.748  -1.577
    1LIG    C16   22  -1.201   0.483  -1.491
    1LIG    C17   23  -1.235   0.419  -1.351
    1LIG    C18   24  -1.242   0.270  -1.319
    1LIG    C19   25  -1.344   0.184  -1.359
    1LIG    C20   26  -1.327   0.045  -1.355
    1LIG     F1   27  -1.420  -0.034  -1.411
    1LIG    C21   28  -1.213  -0.014  -1.301
    1LIG    C22   29  -1.120   0.071  -1.244
    1LIG     F2   30  -1.012   0.018  -1.185
    1LIG    C23   31  -1.134   0.210  -1.251
    1LIG     N2   32  -1.272   0.424  -1.607
    1LIG    C24   33  -1.255   0.324  -1.696
    1LIG     O2   34  -1.321   0.335  -1.800
    1LIG    C25   35  -1.166   0.206  -1.673
    1LIG     H4   36  -1.320   0.496  -1.660
    1LIG    HC2   37  -1.172   0.709  -1.715
    1LIG    HC3   38  -1.317   0.608  -1.705
    1LIG    HC4   39  -1.651   0.930  -1.766
    1LIG    HC5   40  -1.551   0.987  -1.632
    1LIG    HC6   41  -1.542   1.130  -1.836
    1LIG    HC7   42  -1.383   1.070  -1.785
    1LIG    HC8   43  -1.398   1.052  -2.025
    1LIG    HC9   44  -1.554   0.966  -2.013
    1LIG   HC10   45  -1.285   0.866  -1.913
    1LIG   HC11   46  -1.372   0.807  -2.056
    1LIG   HC12   47  -1.404   0.658  -1.863
    1LIG   HC13   48  -1.557   0.731  -1.913
    1LIG     HC   49  -1.666   0.856  -1.506
    1LIG    HC1   50  -1.543   0.505  -1.728
    1LIG   HC14   51  -1.704   0.354  -1.414
    1LIG   HC15   52  -1.283   0.678  -1.443
    1LIG   HC16   53  -1.095   0.460  -1.507
    1LIG   HC17   54  -1.161   0.459  -1.282
    1LIG   HC18   55  -1.331   0.462  -1.320
    1LIG   HC19   56  -1.438   0.224  -1.394
    1LIG   HC20   57  -1.197  -0.121  -1.305
    1LIG   HC21   58  -1.061   0.273  -1.203
    1LIG   HC22   59  -1.929   0.387  -1.511
    1LIG   HC23   60  -1.874   0.218  -1.515
    1LIG   HC24   61  -1.870   0.317  -1.663
    1LIG   HC25   62  -1.101   0.193  -1.758
    1LIG   HC26   63  -1.107   0.223  -1.583
    1LIG   HC27   64  -1.228   0.117  -1.660
    1LIG   HC28   65  -1.514   0.294  -1.562
    1LIG   HC29   66  -1.634   0.164  -1.545
    1LIG   HC30   67  -1.630   0.262  -1.693
   0.00000   0.00000   0.00000
