GROwing Monsters And Cloning Shrimps
   50
    1LIG     C1    1  -1.237   0.420  -1.477
    1LIG     C2    2  -1.377   0.424  -1.484
    1LIG     C3    3  -1.451   0.543  -1.503
    1LIG     C4    4  -1.382   0.664  -1.503
    1LIG     O1    5  -1.442   0.786  -1.517
    1LIG     C5    6  -1.579   0.791  -1.527
    1LIG     C6    7  -1.661   0.678  -1.533
    1LIG     C7    8  -1.800   0.697  -1.544
    1LIG     C8    9  -1.856   0.824  -1.551
    1LIG     C9   10  -1.773   0.935  -1.545
    1LIG    C10   11  -1.634   0.919  -1.533
    1LIG    C11   12  -1.601   0.539  -1.526
    1LIG     N1   13  -1.666   0.462  -1.416
    1LIG     HN   14  -1.662   0.481  -1.316
    1LIG    C12   15  -1.729   0.367  -1.475
    1LIG     O2   16  -1.721   0.353  -1.610
    1LIG    C13   17  -1.635   0.459  -1.653
    1LIG    C14   18  -1.243   0.665  -1.489
    1LIG    C15   19  -1.172   0.545  -1.478
    1LIG     N2   20  -1.805   0.273  -1.417
    1LIG     H1   21  -1.804   0.275  -1.316
    1LIG     H2   22  -1.897   0.264  -1.459
    1LIG     O3   23  -1.990   0.852  -1.562
    1LIG    C16   24  -2.025   0.961  -1.648
    1LIG    C17   25  -1.161   0.292  -1.467
    1LIG    C18   26  -1.152   0.228  -1.342
    1LIG    C19   27  -1.084   0.107  -1.324
    1LIG    C20   28  -1.024   0.045  -1.433
    1LIG    C21   29  -1.031   0.105  -1.559
    1LIG    C22   30  -1.096   0.228  -1.575
    1LIG     CL   31  -1.083   0.297  -1.734
    1LIG     HC   32  -1.432   0.331  -1.475
    1LIG    HC1   33  -1.865   0.610  -1.549
    1LIG    HC2   34  -1.815   1.035  -1.549
    1LIG    HC3   35  -1.570   1.006  -1.529
    1LIG    HN2   36  -1.748   0.521  -1.424
    1LIG    HC4   37  -1.816   0.431  -1.487
    1LIG    HC5   38  -1.686   0.522  -1.726
    1LIG    HC6   39  -1.544   0.417  -1.697
    1LIG    HC7   40  -1.191   0.759  -1.486
    1LIG    HC8   41  -1.064   0.548  -1.470
    1LIG    HN1   42  -1.759   0.187  -1.440
    1LIG    HC9   43  -2.129   0.951  -1.677
    1LIG   HC10   44  -2.010   1.055  -1.594
    1LIG   HC11   45  -1.962   0.959  -1.736
    1LIG   HC12   46  -1.200   0.273  -1.256
    1LIG   HC13   47  -1.077   0.062  -1.227
    1LIG   HC14   48  -0.973  -0.050  -1.421
    1LIG   HC15   49  -0.985   0.057  -1.644
    1LIG    LP1   50  -1.071   0.362  -1.884
   0.00000   0.00000   0.00000
