; Created by cgenff_charmm2gmx.py

[ moleculetype ]
; Name			   nrexcl
LIG				 3

[ atoms ]
;	 nr		  type	resnr residue  atom   cgnr	   charge		mass  typeB    chargeB		massB
; residue	 1 LIG rtp LIG q	qsum
     1     CG2R67      1    LIG     C1      1      0.026     12.011   ;
     2     CG2R61      1    LIG     C2      2     -0.127     12.011   ;
     3     CG2R61      1    LIG     C3      3     -0.329     12.011   ;
     4     CG2R61      1    LIG     C4      4      0.153     12.011   ;
     5     OG3R60      1    LIG     O1      5     -0.292     15.999   ;
     6     CG2R61      1    LIG     C5      6      0.147     12.011   ;
     7     CG2R61      1    LIG     C6      7     -0.324     12.011   ;
     8     CG2R61      1    LIG     C7      8     -0.131     12.011   ;
     9     CG2R61      1    LIG     C8      9      0.222     12.011   ;
    10     CG2R61      1    LIG     C9     10     -0.117     12.011   ;
    11     CG2R61      1    LIG    C10     11     -0.106     12.011   ;
    12     CG3C50      1    LIG    C11     12      1.306     12.011   ;
    13      NG3P2      1    LIG     N1     13     -1.541     14.007   ;
    14       HGP2      1    LIG     HN     14      0.500      1.008   ;
    15     CG3C53      1    LIG    C12     15      1.711     12.011   ;
    16     OG3C51      1    LIG     O2     16     -0.243     15.999   ;
    17     CG3C52      1    LIG    C13     17     -0.015     12.011   ;
    18     CG2R61      1    LIG    C14     18     -0.112     12.011   ;
    19     CG2R61      1    LIG    C15     19     -0.115     12.011   ;
    20      NG3P3      1    LIG     N2     20     -0.781     14.007   ;
    21       HGP2      1    LIG     H1     21      0.307      1.008   ;
    22       HGP2      1    LIG     H2     22      0.307      1.008   ;
    23      OG301      1    LIG     O3     23     -0.383     15.999   ;
    24      CG331      1    LIG    C16     24     -0.094     12.011   ;
    25     CG2R67      1    LIG    C17     25      0.061     12.011   ;
    26     CG2R61      1    LIG    C18     26     -0.120     12.011   ;
    27     CG2R61      1    LIG    C19     27     -0.115     12.011   ;
    28     CG2R61      1    LIG    C20     28     -0.110     12.011   ;
    29     CG2R61      1    LIG    C21     29     -0.101     12.011   ;
    30     CG2R61      1    LIG    C22     30     -0.003     12.011   ;
    31      CLGR1      1    LIG     CL     31     -0.168     35.453   ;
    32      HGR61      1    LIG     HC     32      0.116      1.008   ;
    33      HGR61      1    LIG    HC1     33      0.116      1.008   ;
    34      HGR61      1    LIG    HC2     34      0.116      1.008   ;
    35      HGR61      1    LIG    HC3     35      0.116      1.008   ;
    36       HGP2      1    LIG    HN2     36      0.500      1.008   ;
    37       HGA1      1    LIG    HC4     37      0.090      1.008   ;
    38       HGA2      1    LIG    HC5     38      0.090      1.008   ;
    39       HGA2      1    LIG    HC6     39      0.090      1.008   ;
    40      HGR61      1    LIG    HC7     40      0.116      1.008   ;
    41      HGR61      1    LIG    HC8     41      0.116      1.008   ;
    42       HGP2      1    LIG    HN1     42      0.307      1.008   ;
    43       HGA3      1    LIG    HC9     43      0.090      1.008   ;
    44       HGA3      1    LIG   HC10     44      0.090      1.008   ;
    45       HGA3      1    LIG   HC11     45      0.090      1.008   ;
    46      HGR61      1    LIG   HC12     46      0.116      1.008   ;
    47      HGR61      1    LIG   HC13     47      0.116      1.008   ;
    48      HGR61      1    LIG   HC14     48      0.116      1.008   ;
    49      HGR62      1    LIG   HC15     49      0.146      1.008   ;
    50        LPH      1    LIG    LP1     50      0.050      0.000   ;

[ bonds ]
;	ai	  aj funct			  c0			c1			  c2			c3
    1    19	 1 ;      CG2R67     CG2R61
    1    25	 1 ;      CG2R67     CG2R67
    1     2	 1 ;      CG2R67     CG2R61
    2     3	 1 ;      CG2R61     CG2R61
    2    32	 1 ;      CG2R61      HGR61
    3     4	 1 ;      CG2R61     CG2R61
    3    12	 1 ;      CG2R61     CG3C50
    4    18	 1 ;      CG2R61     CG2R61
    4     5	 1 ;      CG2R61     OG3R60
    5     6	 1 ;      OG3R60     CG2R61
    6    11	 1 ;      CG2R61     CG2R61
    6     7	 1 ;      CG2R61     CG2R61
    7    12	 1 ;      CG2R61     CG3C50
    7     8	 1 ;      CG2R61     CG2R61
    8     9	 1 ;      CG2R61     CG2R61
    8    33	 1 ;      CG2R61      HGR61
    9    10	 1 ;      CG2R61     CG2R61
    9    23	 1 ;      CG2R61      OG301
   10    11	 1 ;      CG2R61     CG2R61
   10    34	 1 ;      CG2R61      HGR61
   11    35	 1 ;      CG2R61      HGR61
   12    17	 1 ;      CG3C50     CG3C52
   12    13	 1 ;      CG3C50      NG3P2
   13    15	 1 ;       NG3P2     CG3C53
   13    14	 1 ;       NG3P2       HGP2
   13    36	 1 ;       NG3P2       HGP2
   15    16	 1 ;      CG3C53     OG3C51
   15    20	 1 ;      CG3C53      NG3P3
   15    37	 1 ;      CG3C53       HGA1
   16    17	 1 ;      OG3C51     CG3C52
   17    38	 1 ;      CG3C52       HGA2
   17    39	 1 ;      CG3C52       HGA2
   18    19	 1 ;      CG2R61     CG2R61
   18    40	 1 ;      CG2R61      HGR61
   19    41	 1 ;      CG2R61      HGR61
   20    22	 1 ;       NG3P3       HGP2
   20    21	 1 ;       NG3P3       HGP2
   20    42	 1 ;       NG3P3       HGP2
   23    24	 1 ;       OG301      CG331
   24    43	 1 ;       CG331       HGA3
   24    44	 1 ;       CG331       HGA3
   24    45	 1 ;       CG331       HGA3
   25    30	 1 ;      CG2R67     CG2R61
   25    26	 1 ;      CG2R67     CG2R61
   26    27	 1 ;      CG2R61     CG2R61
   26    46	 1 ;      CG2R61      HGR61
   27    28	 1 ;      CG2R61     CG2R61
   27    47	 1 ;      CG2R61      HGR61
   28    29	 1 ;      CG2R61     CG2R61
   28    48	 1 ;      CG2R61      HGR61
   29    30	 1 ;      CG2R61     CG2R61
   29    49	 1 ;      CG2R61      HGR62
   30    31	 1 ;      CG2R61      CLGR1

[ pairs ]
;	ai	  aj funct			  c0			c1			  c2			c3
    1     4	 1
    1    12	 1
    1    40	 1
    1    31	 1
   50     1	 1
    1    29	 1
    1    27	 1
    1    46	 1
    2    18	 1
    2    41	 1
    2    30	 1
    2    26	 1
    2     5	 1
    2    17	 1
    2     7	 1
    2    13	 1
    3    19	 1
    3    25	 1
    3    40	 1
    3     6	 1
    3     8	 1
    3    16	 1
    3    38	 1
    3    39	 1
    3    15	 1
    3    14	 1
    3    36	 1
    4    32	 1
    4    17	 1
    4     7	 1
    4    13	 1
    4    11	 1
    4    41	 1
    5    12	 1
    5    19	 1
    5    40	 1
    5    10	 1
    5    35	 1
    5     8	 1
    6    18	 1
    6    17	 1
    6    13	 1
    6     9	 1
    6    33	 1
    6    34	 1
    7    10	 1
    7    35	 1
    7    23	 1
    7    16	 1
    7    38	 1
    7    39	 1
    7    15	 1
    7    14	 1
    7    36	 1
    8    11	 1
    8    17	 1
    8    13	 1
    8    34	 1
    8    24	 1
    9    12	 1
    9    35	 1
    9    43	 1
    9    44	 1
    9    45	 1
   10    33	 1
   10    24	 1
   11    12	 1
   11    23	 1
   12    32	 1
   12    18	 1
   12    33	 1
   12    20	 1
   12    37	 1
   13    38	 1
   13    39	 1
   13    22	 1
   13    21	 1
   13    42	 1
   14    17	 1
   14    16	 1
   14    20	 1
   14    37	 1
   15    38	 1
   15    39	 1
   16    36	 1
   16    22	 1
   16    21	 1
   16    42	 1
   17    36	 1
   17    20	 1
   17    37	 1
   18    25	 1
   19    30	 1
   19    26	 1
   19    32	 1
   20    36	 1
   21    37	 1
   22    37	 1
   23    33	 1
   23    34	 1
   25    41	 1
   25    32	 1
   25    28	 1
   25    47	 1
   25    49	 1
   26    31	 1
   50    26	 1
   26    29	 1
   26    48	 1
   27    30	 1
   27    49	 1
   28    46	 1
   28    31	 1
   50    28	 1
   29    47	 1
   30    46	 1
   30    48	 1
   31    49	 1
   50    49	 1
   34    35	 1
   36    37	 1
   37    42	 1
   40    41	 1
   46    47	 1
   47    48	 1
   48    49	 1

[ angles ]
;	ai	  aj	ak funct			c0			  c1			c2			  c3
   19     1    25	5 ;     CG2R61     CG2R67     CG2R67
   19     1     2	5 ;     CG2R61     CG2R67     CG2R61
   25     1     2	5 ;     CG2R67     CG2R67     CG2R61
    1     2     3	5 ;     CG2R67     CG2R61     CG2R61
    1     2    32	5 ;     CG2R67     CG2R61      HGR61
    3     2    32	5 ;     CG2R61     CG2R61      HGR61
    4     3     2	5 ;     CG2R61     CG2R61     CG2R61
    4     3    12	5 ;     CG2R61     CG2R61     CG3C50
    2     3    12	5 ;     CG2R61     CG2R61     CG3C50
   18     4     5	5 ;     CG2R61     CG2R61     OG3R60
   18     4     3	5 ;     CG2R61     CG2R61     CG2R61
    5     4     3	5 ;     OG3R60     CG2R61     CG2R61
    4     5     6	5 ;     CG2R61     OG3R60     CG2R61
    5     6    11	5 ;     OG3R60     CG2R61     CG2R61
    5     6     7	5 ;     OG3R60     CG2R61     CG2R61
   11     6     7	5 ;     CG2R61     CG2R61     CG2R61
    6     7    12	5 ;     CG2R61     CG2R61     CG3C50
    6     7     8	5 ;     CG2R61     CG2R61     CG2R61
   12     7     8	5 ;     CG3C50     CG2R61     CG2R61
    7     8     9	5 ;     CG2R61     CG2R61     CG2R61
    7     8    33	5 ;     CG2R61     CG2R61      HGR61
    9     8    33	5 ;     CG2R61     CG2R61      HGR61
   10     9     8	5 ;     CG2R61     CG2R61     CG2R61
   10     9    23	5 ;     CG2R61     CG2R61      OG301
    8     9    23	5 ;     CG2R61     CG2R61      OG301
   11    10     9	5 ;     CG2R61     CG2R61     CG2R61
   11    10    34	5 ;     CG2R61     CG2R61      HGR61
    9    10    34	5 ;     CG2R61     CG2R61      HGR61
    6    11    10	5 ;     CG2R61     CG2R61     CG2R61
    6    11    35	5 ;     CG2R61     CG2R61      HGR61
   10    11    35	5 ;     CG2R61     CG2R61      HGR61
    3    12    17	5 ;     CG2R61     CG3C50     CG3C52
    3    12     7	5 ;     CG2R61     CG3C50     CG2R61
    3    12    13	5 ;     CG2R61     CG3C50      NG3P2
   17    12     7	5 ;     CG3C52     CG3C50     CG2R61
   17    12    13	5 ;     CG3C52     CG3C50      NG3P2
    7    12    13	5 ;     CG2R61     CG3C50      NG3P2
   12    13    15	5 ;     CG3C50      NG3P2     CG3C53
   12    13    14	5 ;     CG3C50      NG3P2       HGP2
   12    13    36	5 ;     CG3C50      NG3P2       HGP2
   15    13    14	5 ;     CG3C53      NG3P2       HGP2
   15    13    36	5 ;     CG3C53      NG3P2       HGP2
   14    13    36	5 ;       HGP2      NG3P2       HGP2
   16    15    13	5 ;     OG3C51     CG3C53      NG3P2
   16    15    20	5 ;     OG3C51     CG3C53      NG3P3
   16    15    37	5 ;     OG3C51     CG3C53       HGA1
   13    15    20	5 ;      NG3P2     CG3C53      NG3P3
   13    15    37	5 ;      NG3P2     CG3C53       HGA1
   20    15    37	5 ;      NG3P3     CG3C53       HGA1
   17    16    15	5 ;     CG3C52     OG3C51     CG3C53
   12    17    16	5 ;     CG3C50     CG3C52     OG3C51
   12    17    38	5 ;     CG3C50     CG3C52       HGA2
   12    17    39	5 ;     CG3C50     CG3C52       HGA2
   16    17    38	5 ;     OG3C51     CG3C52       HGA2
   16    17    39	5 ;     OG3C51     CG3C52       HGA2
   38    17    39	5 ;       HGA2     CG3C52       HGA2
   19    18     4	5 ;     CG2R61     CG2R61     CG2R61
   19    18    40	5 ;     CG2R61     CG2R61      HGR61
    4    18    40	5 ;     CG2R61     CG2R61      HGR61
   18    19     1	5 ;     CG2R61     CG2R61     CG2R67
   18    19    41	5 ;     CG2R61     CG2R61      HGR61
    1    19    41	5 ;     CG2R67     CG2R61      HGR61
   15    20    22	5 ;     CG3C53      NG3P3       HGP2
   15    20    21	5 ;     CG3C53      NG3P3       HGP2
   15    20    42	5 ;     CG3C53      NG3P3       HGP2
   22    20    21	5 ;       HGP2      NG3P3       HGP2
   22    20    42	5 ;       HGP2      NG3P3       HGP2
   21    20    42	5 ;       HGP2      NG3P3       HGP2
   24    23     9	5 ;      CG331      OG301     CG2R61
   23    24    43	5 ;      OG301      CG331       HGA3
   23    24    44	5 ;      OG301      CG331       HGA3
   23    24    45	5 ;      OG301      CG331       HGA3
   43    24    44	5 ;       HGA3      CG331       HGA3
   43    24    45	5 ;       HGA3      CG331       HGA3
   44    24    45	5 ;       HGA3      CG331       HGA3
   30    25     1	5 ;     CG2R61     CG2R67     CG2R67
   30    25    26	5 ;     CG2R61     CG2R67     CG2R61
    1    25    26	5 ;     CG2R67     CG2R67     CG2R61
   25    26    27	5 ;     CG2R67     CG2R61     CG2R61
   25    26    46	5 ;     CG2R67     CG2R61      HGR61
   27    26    46	5 ;     CG2R61     CG2R61      HGR61
   28    27    26	5 ;     CG2R61     CG2R61     CG2R61
   28    27    47	5 ;     CG2R61     CG2R61      HGR61
   26    27    47	5 ;     CG2R61     CG2R61      HGR61
   29    28    27	5 ;     CG2R61     CG2R61     CG2R61
   29    28    48	5 ;     CG2R61     CG2R61      HGR61
   27    28    48	5 ;     CG2R61     CG2R61      HGR61
   30    29    28	5 ;     CG2R61     CG2R61     CG2R61
   30    29    49	5 ;     CG2R61     CG2R61      HGR62
   28    29    49	5 ;     CG2R61     CG2R61      HGR62
   31    30    29	5 ;      CLGR1     CG2R61     CG2R61
   31    30    25	5 ;      CLGR1     CG2R61     CG2R67
   29    30    25	5 ;     CG2R61     CG2R61     CG2R67

[ dihedrals ]
;	ai	  aj	ak	  al funct			  c0			c1			  c2			c3			  c4			c5
   25     1    19    18	 9 ;     CG2R67     CG2R67     CG2R61     CG2R61
   25     1    19    41	 9 ;     CG2R67     CG2R67     CG2R61      HGR61
    2     1    19    18	 9 ;     CG2R61     CG2R67     CG2R61     CG2R61
    2     1    19    41	 9 ;     CG2R61     CG2R67     CG2R61      HGR61
   19     1    25    30	 9 ;     CG2R61     CG2R67     CG2R67     CG2R61
   19     1    25    26	 9 ;     CG2R61     CG2R67     CG2R67     CG2R61
    2     1    25    30	 9 ;     CG2R61     CG2R67     CG2R67     CG2R61
    2     1    25    26	 9 ;     CG2R61     CG2R67     CG2R67     CG2R61
   19     1     2     3	 9 ;     CG2R61     CG2R67     CG2R61     CG2R61
   19     1     2    32	 9 ;     CG2R61     CG2R67     CG2R61      HGR61
   25     1     2     3	 9 ;     CG2R67     CG2R67     CG2R61     CG2R61
   25     1     2    32	 9 ;     CG2R67     CG2R67     CG2R61      HGR61
    1     2     3     4	 9 ;     CG2R67     CG2R61     CG2R61     CG2R61
    1     2     3    12	 9 ;     CG2R67     CG2R61     CG2R61     CG3C50
   32     2     3     4	 9 ;      HGR61     CG2R61     CG2R61     CG2R61
   32     2     3    12	 9 ;      HGR61     CG2R61     CG2R61     CG3C50
    2     3     4    18	 9 ;     CG2R61     CG2R61     CG2R61     CG2R61
    2     3     4     5	 9 ;     CG2R61     CG2R61     CG2R61     OG3R60
   12     3     4    18	 9 ;     CG3C50     CG2R61     CG2R61     CG2R61
   12     3     4     5	 9 ;     CG3C50     CG2R61     CG2R61     OG3R60
    4     3    12    17	 9 ;     CG2R61     CG2R61     CG3C50     CG3C52
    4     3    12     7	 9 ;     CG2R61     CG2R61     CG3C50     CG2R61
    4     3    12    13	 9 ;     CG2R61     CG2R61     CG3C50      NG3P2
    2     3    12    17	 9 ;     CG2R61     CG2R61     CG3C50     CG3C52
    2     3    12     7	 9 ;     CG2R61     CG2R61     CG3C50     CG2R61
    2     3    12    13	 9 ;     CG2R61     CG2R61     CG3C50      NG3P2
    5     4    18    19	 9 ;     OG3R60     CG2R61     CG2R61     CG2R61
    5     4    18    40	 9 ;     OG3R60     CG2R61     CG2R61      HGR61
    3     4    18    19	 9 ;     CG2R61     CG2R61     CG2R61     CG2R61
    3     4    18    40	 9 ;     CG2R61     CG2R61     CG2R61      HGR61
   18     4     5     6	 9 ;     CG2R61     CG2R61     OG3R60     CG2R61
    3     4     5     6	 9 ;     CG2R61     CG2R61     OG3R60     CG2R61
    4     5     6    11	 9 ;     CG2R61     OG3R60     CG2R61     CG2R61
    4     5     6     7	 9 ;     CG2R61     OG3R60     CG2R61     CG2R61
    5     6    11    10	 9 ;     OG3R60     CG2R61     CG2R61     CG2R61
    5     6    11    35	 9 ;     OG3R60     CG2R61     CG2R61      HGR61
    7     6    11    10	 9 ;     CG2R61     CG2R61     CG2R61     CG2R61
    7     6    11    35	 9 ;     CG2R61     CG2R61     CG2R61      HGR61
    5     6     7    12	 9 ;     OG3R60     CG2R61     CG2R61     CG3C50
    5     6     7     8	 9 ;     OG3R60     CG2R61     CG2R61     CG2R61
   11     6     7    12	 9 ;     CG2R61     CG2R61     CG2R61     CG3C50
   11     6     7     8	 9 ;     CG2R61     CG2R61     CG2R61     CG2R61
    6     7    12     3	 9 ;     CG2R61     CG2R61     CG3C50     CG2R61
    6     7    12    17	 9 ;     CG2R61     CG2R61     CG3C50     CG3C52
    6     7    12    13	 9 ;     CG2R61     CG2R61     CG3C50      NG3P2
    8     7    12     3	 9 ;     CG2R61     CG2R61     CG3C50     CG2R61
    8     7    12    17	 9 ;     CG2R61     CG2R61     CG3C50     CG3C52
    8     7    12    13	 9 ;     CG2R61     CG2R61     CG3C50      NG3P2
    6     7     8     9	 9 ;     CG2R61     CG2R61     CG2R61     CG2R61
    6     7     8    33	 9 ;     CG2R61     CG2R61     CG2R61      HGR61
   12     7     8     9	 9 ;     CG3C50     CG2R61     CG2R61     CG2R61
   12     7     8    33	 9 ;     CG3C50     CG2R61     CG2R61      HGR61
    7     8     9    10	 9 ;     CG2R61     CG2R61     CG2R61     CG2R61
    7     8     9    23	 9 ;     CG2R61     CG2R61     CG2R61      OG301
   33     8     9    10	 9 ;      HGR61     CG2R61     CG2R61     CG2R61
   33     8     9    23	 9 ;      HGR61     CG2R61     CG2R61      OG301
    8     9    10    11	 9 ;     CG2R61     CG2R61     CG2R61     CG2R61
    8     9    10    34	 9 ;     CG2R61     CG2R61     CG2R61      HGR61
   23     9    10    11	 9 ;      OG301     CG2R61     CG2R61     CG2R61
   23     9    10    34	 9 ;      OG301     CG2R61     CG2R61      HGR61
   10     9    23    24	 9 ;     CG2R61     CG2R61      OG301      CG331
    8     9    23    24	 9 ;     CG2R61     CG2R61      OG301      CG331
    9    10    11     6	 9 ;     CG2R61     CG2R61     CG2R61     CG2R61
    9    10    11    35	 9 ;     CG2R61     CG2R61     CG2R61      HGR61
   34    10    11     6	 9 ;      HGR61     CG2R61     CG2R61     CG2R61
   34    10    11    35	 9 ;      HGR61     CG2R61     CG2R61      HGR61
    3    12    17    16	 9 ;     CG2R61     CG3C50     CG3C52     OG3C51
    3    12    17    38	 9 ;     CG2R61     CG3C50     CG3C52       HGA2
    3    12    17    39	 9 ;     CG2R61     CG3C50     CG3C52       HGA2
    7    12    17    16	 9 ;     CG2R61     CG3C50     CG3C52     OG3C51
    7    12    17    38	 9 ;     CG2R61     CG3C50     CG3C52       HGA2
    7    12    17    39	 9 ;     CG2R61     CG3C50     CG3C52       HGA2
   13    12    17    16	 9 ;      NG3P2     CG3C50     CG3C52     OG3C51
   13    12    17    38	 9 ;      NG3P2     CG3C50     CG3C52       HGA2
   13    12    17    39	 9 ;      NG3P2     CG3C50     CG3C52       HGA2
    3    12    13    15	 9 ;     CG2R61     CG3C50      NG3P2     CG3C53
    3    12    13    14	 9 ;     CG2R61     CG3C50      NG3P2       HGP2
    3    12    13    36	 9 ;     CG2R61     CG3C50      NG3P2       HGP2
   17    12    13    15	 9 ;     CG3C52     CG3C50      NG3P2     CG3C53
   17    12    13    14	 9 ;     CG3C52     CG3C50      NG3P2       HGP2
   17    12    13    36	 9 ;     CG3C52     CG3C50      NG3P2       HGP2
    7    12    13    15	 9 ;     CG2R61     CG3C50      NG3P2     CG3C53
    7    12    13    14	 9 ;     CG2R61     CG3C50      NG3P2       HGP2
    7    12    13    36	 9 ;     CG2R61     CG3C50      NG3P2       HGP2
   12    13    15    16	 9 ;     CG3C50      NG3P2     CG3C53     OG3C51
   12    13    15    20	 9 ;     CG3C50      NG3P2     CG3C53      NG3P3
   12    13    15    37	 9 ;     CG3C50      NG3P2     CG3C53       HGA1
   14    13    15    16	 9 ;       HGP2      NG3P2     CG3C53     OG3C51
   14    13    15    20	 9 ;       HGP2      NG3P2     CG3C53      NG3P3
   14    13    15    37	 9 ;       HGP2      NG3P2     CG3C53       HGA1
   36    13    15    16	 9 ;       HGP2      NG3P2     CG3C53     OG3C51
   36    13    15    20	 9 ;       HGP2      NG3P2     CG3C53      NG3P3
   36    13    15    37	 9 ;       HGP2      NG3P2     CG3C53       HGA1
   13    15    16    17	 9 ;      NG3P2     CG3C53     OG3C51     CG3C52
   20    15    16    17	 9 ;      NG3P3     CG3C53     OG3C51     CG3C52
   37    15    16    17	 9 ;       HGA1     CG3C53     OG3C51     CG3C52
   16    15    20    22	 9 ;     OG3C51     CG3C53      NG3P3       HGP2
   16    15    20    21	 9 ;     OG3C51     CG3C53      NG3P3       HGP2
   16    15    20    42	 9 ;     OG3C51     CG3C53      NG3P3       HGP2
   13    15    20    22	 9 ;      NG3P2     CG3C53      NG3P3       HGP2
   13    15    20    21	 9 ;      NG3P2     CG3C53      NG3P3       HGP2
   13    15    20    42	 9 ;      NG3P2     CG3C53      NG3P3       HGP2
   37    15    20    22	 9 ;       HGA1     CG3C53      NG3P3       HGP2
   37    15    20    21	 9 ;       HGA1     CG3C53      NG3P3       HGP2
   37    15    20    42	 9 ;       HGA1     CG3C53      NG3P3       HGP2
   15    16    17    12	 9 ;     CG3C53     OG3C51     CG3C52     CG3C50
   15    16    17    38	 9 ;     CG3C53     OG3C51     CG3C52       HGA2
   15    16    17    39	 9 ;     CG3C53     OG3C51     CG3C52       HGA2
    4    18    19     1	 9 ;     CG2R61     CG2R61     CG2R61     CG2R67
    4    18    19    41	 9 ;     CG2R61     CG2R61     CG2R61      HGR61
   40    18    19     1	 9 ;      HGR61     CG2R61     CG2R61     CG2R67
   40    18    19    41	 9 ;      HGR61     CG2R61     CG2R61      HGR61
    9    23    24    43	 9 ;     CG2R61      OG301      CG331       HGA3
    9    23    24    44	 9 ;     CG2R61      OG301      CG331       HGA3
    9    23    24    45	 9 ;     CG2R61      OG301      CG331       HGA3
    1    25    30    31	 9 ;     CG2R67     CG2R67     CG2R61      CLGR1
    1    25    30    29	 9 ;     CG2R67     CG2R67     CG2R61     CG2R61
   26    25    30    31	 9 ;     CG2R61     CG2R67     CG2R61      CLGR1
   26    25    30    29	 9 ;     CG2R61     CG2R67     CG2R61     CG2R61
   30    25    26    27	 9 ;     CG2R61     CG2R67     CG2R61     CG2R61
   30    25    26    46	 9 ;     CG2R61     CG2R67     CG2R61      HGR61
    1    25    26    27	 9 ;     CG2R67     CG2R67     CG2R61     CG2R61
    1    25    26    46	 9 ;     CG2R67     CG2R67     CG2R61      HGR61
   25    26    27    28	 9 ;     CG2R67     CG2R61     CG2R61     CG2R61
   25    26    27    47	 9 ;     CG2R67     CG2R61     CG2R61      HGR61
   46    26    27    28	 9 ;      HGR61     CG2R61     CG2R61     CG2R61
   46    26    27    47	 9 ;      HGR61     CG2R61     CG2R61      HGR61
   26    27    28    29	 9 ;     CG2R61     CG2R61     CG2R61     CG2R61
   26    27    28    48	 9 ;     CG2R61     CG2R61     CG2R61      HGR61
   47    27    28    29	 9 ;      HGR61     CG2R61     CG2R61     CG2R61
   47    27    28    48	 9 ;      HGR61     CG2R61     CG2R61      HGR61
   27    28    29    30	 9 ;     CG2R61     CG2R61     CG2R61     CG2R61
   27    28    29    49	 9 ;     CG2R61     CG2R61     CG2R61      HGR62
   48    28    29    30	 9 ;      HGR61     CG2R61     CG2R61     CG2R61
   48    28    29    49	 9 ;      HGR61     CG2R61     CG2R61      HGR62
   28    29    30    31	 9 ;     CG2R61     CG2R61     CG2R61      CLGR1
   28    29    30    25	 9 ;     CG2R61     CG2R61     CG2R61     CG2R67
   49    29    30    31	 9 ;      HGR62     CG2R61     CG2R61      CLGR1
   49    29    30    25	 9 ;      HGR62     CG2R61     CG2R61     CG2R67

[ virtual_sites2 ]
; Site   from				funct a
   50    31    30     2   -0.164

[ exclusions ]
;	ai	  aj
   31    50
   50    30
   50    29
   50    25
   50     1
   50    26
   50    28
   50    49

