; Created by cgenff_charmm2gmx.py

[ moleculetype ]
; Name			   nrexcl
LIG				 3

[ atoms ]
;	 nr		  type	resnr residue  atom   cgnr	   charge		mass  typeB    chargeB		massB
; residue	 1 LIG rtp LIG q	qsum
     1      CG311      1    LIG     C1      1     -0.003     12.011   ;
     2      NG2S1      1    LIG     N1      2     -0.371     14.007   ;
     3      CG2O1      1    LIG     C2      3      0.510     12.011   ;
     4      OG2D1      1    LIG     O1      4     -0.511     15.999   ;
     5       HGP1      1    LIG     H1      5      0.269      1.008   ;
     6      CG311      1    LIG     C3      6     -0.013     12.011   ;
     7      CG331      1    LIG     C4      7     -0.232     12.011   ;
     8     NG2R53      1    LIG     N2      8     -0.084     14.007   ;
     9     CG3C52      1    LIG     C5      9     -0.138     12.011   ;
    10     CG3C52      1    LIG     C6     10     -0.227     12.011   ;
    11     CG3C51      1    LIG     C7     11     -0.082     12.011   ;
    12     CG2R53      1    LIG     C8     12      0.407     12.011   ;
    13      OG2D1      1    LIG     O2     13     -0.496     15.999   ;
    14      CG321      1    LIG     C9     14     -0.155     12.011   ;
    15      CG321      1    LIG    C10     15     -0.178     12.011   ;
    16      CG321      1    LIG    C11     16     -0.177     12.011   ;
    17      CG331      1    LIG    C12     17     -0.270     12.011   ;
    18      CG321      1    LIG    C13     18     -0.153     12.011   ;
    19     CG2R61      1    LIG    C14     19      0.057     12.011   ;
    20     CG2R61      1    LIG    C15     20     -0.218     12.011   ;
    21     CG2R66      1    LIG    C16     21      0.261     12.011   ;
    22       FGR1      1    LIG     F1     22     -0.210     18.998   ;
    23     CG2R61      1    LIG    C17     23     -0.240     12.011   ;
    24     CG2R66      1    LIG    C18     24      0.261     12.011   ;
    25     CG2R61      1    LIG    C19     25     -0.218     12.011   ;
    26       FGR1      1    LIG     F2     26     -0.210     18.998   ;
    27      CG311      1    LIG    C20     27      0.094     12.011   ;
    28      CG324      1    LIG    C21     28      0.178     12.011   ;
    29      NG3P2      1    LIG     N3     29     -0.444     14.007   ;
    30       HGP2      1    LIG     H2     30      0.348      1.008   ;
    31       HGP2      1    LIG     H3     31      0.348      1.008   ;
    32      CG324      1    LIG    C22     32      0.171     12.011   ;
    33     CG2R61      1    LIG    C23     33      0.036     12.011   ;
    34     CG2R61      1    LIG    C24     34     -0.124     12.011   ;
    35     CG2R61      1    LIG    C25     35      0.216     12.011   ;
    36     CG2R61      1    LIG    C26     36     -0.121     12.011   ;
    37     CG2R61      1    LIG    C27     37     -0.108     12.011   ;
    38     CG2R61      1    LIG    C28     38     -0.119     12.011   ;
    39      OG301      1    LIG     O3     39     -0.383     15.999   ;
    40      CG331      1    LIG    C29     40     -0.094     12.011   ;
    41      OG311      1    LIG     O4     41     -0.625     15.999   ;
    42       HGP1      1    LIG     H4     42      0.415      1.008   ;
    43       HGA1      1    LIG     H5     43      0.090      1.008   ;
    44       HGA1      1    LIG     H6     44      0.090      1.008   ;
    45       HGA3      1    LIG     H7     45      0.090      1.008   ;
    46       HGA3      1    LIG     H8     46      0.090      1.008   ;
    47       HGA3      1    LIG     H9     47      0.090      1.008   ;
    48       HGA2      1    LIG    H10     48      0.090      1.008   ;
    49       HGA2      1    LIG    H11     49      0.090      1.008   ;
    50       HGA2      1    LIG    H12     50      0.090      1.008   ;
    51       HGA2      1    LIG    H13     51      0.090      1.008   ;
    52       HGA1      1    LIG    H14     52      0.115      1.008   ;
    53       HGA2      1    LIG    H15     53      0.090      1.008   ;
    54       HGA2      1    LIG    H16     54      0.090      1.008   ;
    55       HGA2      1    LIG    H17     55      0.090      1.008   ;
    56       HGA2      1    LIG    H18     56      0.090      1.008   ;
    57       HGA2      1    LIG    H19     57      0.090      1.008   ;
    58       HGA2      1    LIG    H20     58      0.090      1.008   ;
    59       HGA3      1    LIG    H21     59      0.090      1.008   ;
    60       HGA3      1    LIG    H22     60      0.090      1.008   ;
    61       HGA3      1    LIG    H23     61      0.090      1.008   ;
    62       HGA2      1    LIG    H24     62      0.090      1.008   ;
    63       HGA2      1    LIG    H25     63      0.090      1.008   ;
    64      HGR62      1    LIG    H26     64      0.174      1.008   ;
    65      HGR62      1    LIG    H27     65      0.186      1.008   ;
    66      HGR62      1    LIG    H28     66      0.174      1.008   ;
    67       HGA1      1    LIG    H29     67      0.090      1.008   ;
    68       HGA2      1    LIG    H30     68      0.090      1.008   ;
    69       HGA2      1    LIG    H31     69      0.090      1.008   ;
    70       HGA2      1    LIG    H32     70      0.090      1.008   ;
    71       HGA2      1    LIG    H33     71      0.090      1.008   ;
    72      HGR61      1    LIG    H34     72      0.116      1.008   ;
    73      HGR61      1    LIG    H35     73      0.116      1.008   ;
    74      HGR61      1    LIG    H36     74      0.116      1.008   ;
    75      HGR61      1    LIG    H37     75      0.116      1.008   ;
    76       HGA3      1    LIG    H38     76      0.090      1.008   ;
    77       HGA3      1    LIG    H39     77      0.090      1.008   ;
    78       HGA3      1    LIG    H40     78      0.090      1.008   ;

[ bonds ]
;	ai	  aj funct			  c0			c1			  c2			c3
    1     2	 1 ;       CG311      NG2S1
    1    27	 1 ;       CG311      CG311
    1    18	 1 ;       CG311      CG321
    1    43	 1 ;       CG311       HGA1
    2     3	 1 ;       NG2S1      CG2O1
    2     5	 1 ;       NG2S1       HGP1
    3     6	 1 ;       CG2O1      CG311
    3     4	 1 ;       CG2O1      OG2D1
    6     8	 1 ;       CG311     NG2R53
    6     7	 1 ;       CG311      CG331
    6    44	 1 ;       CG311       HGA1
    7    45	 1 ;       CG331       HGA3
    7    46	 1 ;       CG331       HGA3
    7    47	 1 ;       CG331       HGA3
    8     9	 1 ;      NG2R53     CG3C52
    8    12	 1 ;      NG2R53     CG2R53
    9    10	 1 ;      CG3C52     CG3C52
    9    48	 1 ;      CG3C52       HGA2
    9    49	 1 ;      CG3C52       HGA2
   10    11	 1 ;      CG3C52     CG3C51
   10    50	 1 ;      CG3C52       HGA2
   10    51	 1 ;      CG3C52       HGA2
   11    12	 1 ;      CG3C51     CG2R53
   11    14	 1 ;      CG3C51      CG321
   11    52	 1 ;      CG3C51       HGA1
   12    13	 1 ;      CG2R53      OG2D1
   14    15	 1 ;       CG321      CG321
   14    53	 1 ;       CG321       HGA2
   14    54	 1 ;       CG321       HGA2
   15    16	 1 ;       CG321      CG321
   15    55	 1 ;       CG321       HGA2
   15    56	 1 ;       CG321       HGA2
   16    17	 1 ;       CG321      CG331
   16    57	 1 ;       CG321       HGA2
   16    58	 1 ;       CG321       HGA2
   17    59	 1 ;       CG331       HGA3
   17    60	 1 ;       CG331       HGA3
   17    61	 1 ;       CG331       HGA3
   18    19	 1 ;       CG321     CG2R61
   18    62	 1 ;       CG321       HGA2
   18    63	 1 ;       CG321       HGA2
   19    20	 1 ;      CG2R61     CG2R61
   19    25	 1 ;      CG2R61     CG2R61
   20    21	 1 ;      CG2R61     CG2R66
   20    64	 1 ;      CG2R61      HGR62
   21    22	 1 ;      CG2R66       FGR1
   21    23	 1 ;      CG2R66     CG2R61
   23    24	 1 ;      CG2R61     CG2R66
   23    65	 1 ;      CG2R61      HGR62
   24    25	 1 ;      CG2R66     CG2R61
   24    26	 1 ;      CG2R66       FGR1
   25    66	 1 ;      CG2R61      HGR62
   27    28	 1 ;       CG311      CG324
   27    41	 1 ;       CG311      OG311
   27    67	 1 ;       CG311       HGA1
   28    29	 1 ;       CG324      NG3P2
   28    68	 1 ;       CG324       HGA2
   28    69	 1 ;       CG324       HGA2
   29    30	 1 ;       NG3P2       HGP2
   29    31	 1 ;       NG3P2       HGP2
   29    32	 1 ;       NG3P2      CG324
   32    33	 1 ;       CG324     CG2R61
   32    70	 1 ;       CG324       HGA2
   32    71	 1 ;       CG324       HGA2
   33    38	 1 ;      CG2R61     CG2R61
   33    34	 1 ;      CG2R61     CG2R61
   34    35	 1 ;      CG2R61     CG2R61
   34    72	 1 ;      CG2R61      HGR61
   35    36	 1 ;      CG2R61     CG2R61
   35    39	 1 ;      CG2R61      OG301
   36    37	 1 ;      CG2R61     CG2R61
   36    73	 1 ;      CG2R61      HGR61
   37    38	 1 ;      CG2R61     CG2R61
   37    74	 1 ;      CG2R61      HGR61
   38    75	 1 ;      CG2R61      HGR61
   39    40	 1 ;       OG301      CG331
   40    76	 1 ;       CG331       HGA3
   40    77	 1 ;       CG331       HGA3
   40    78	 1 ;       CG331       HGA3
   41    42	 1 ;       OG311       HGP1

[ pairs ]
;	ai	  aj funct			  c0			c1			  c2			c3
    1     6	 1
    1     4	 1
    1    20	 1
    1    25	 1
    1    29	 1
    1    68	 1
    1    69	 1
    1    42	 1
    2    28	 1
    2    41	 1
    2    67	 1
    2    19	 1
    2    62	 1
    2    63	 1
    2     8	 1
    2     7	 1
    2    44	 1
    3    27	 1
    3    18	 1
    3    43	 1
    3     9	 1
    3    12	 1
    3    45	 1
    3    46	 1
    3    47	 1
    4     5	 1
    4     8	 1
    4     7	 1
    4    44	 1
    5    27	 1
    5    18	 1
    5    43	 1
    5     6	 1
    6    10	 1
    6    48	 1
    6    49	 1
    6    11	 1
    6    13	 1
    7     9	 1
    7    12	 1
    8    45	 1
    8    46	 1
    8    47	 1
    8    50	 1
    8    51	 1
    8    14	 1
    8    52	 1
    9    44	 1
    9    13	 1
    9    14	 1
    9    52	 1
   10    13	 1
   10    15	 1
   10    53	 1
   10    54	 1
   11    48	 1
   11    49	 1
   11    16	 1
   11    55	 1
   11    56	 1
   12    44	 1
   12    48	 1
   12    49	 1
   12    50	 1
   12    51	 1
   12    15	 1
   12    53	 1
   12    54	 1
   13    14	 1
   13    52	 1
   14    50	 1
   14    51	 1
   14    17	 1
   14    57	 1
   14    58	 1
   15    52	 1
   15    59	 1
   15    60	 1
   15    61	 1
   16    53	 1
   16    54	 1
   17    55	 1
   17    56	 1
   18    28	 1
   18    41	 1
   18    67	 1
   18    21	 1
   18    64	 1
   18    24	 1
   18    66	 1
   19    27	 1
   19    43	 1
   19    22	 1
   19    23	 1
   19    26	 1
   20    62	 1
   20    63	 1
   20    24	 1
   20    66	 1
   20    65	 1
   21    25	 1
   21    26	 1
   22    64	 1
   22    24	 1
   22    65	 1
   23    64	 1
   23    66	 1
   25    62	 1
   25    63	 1
   25    64	 1
   25    65	 1
   26    65	 1
   26    66	 1
   27    62	 1
   27    63	 1
   27    30	 1
   27    31	 1
   27    32	 1
   28    43	 1
   28    42	 1
   28    33	 1
   28    70	 1
   28    71	 1
   29    41	 1
   29    67	 1
   29    38	 1
   29    34	 1
   30    68	 1
   30    69	 1
   30    33	 1
   30    70	 1
   30    71	 1
   31    68	 1
   31    69	 1
   31    33	 1
   31    70	 1
   31    71	 1
   32    68	 1
   32    69	 1
   32    37	 1
   32    75	 1
   32    35	 1
   32    72	 1
   33    36	 1
   33    39	 1
   33    74	 1
   34    70	 1
   34    71	 1
   34    37	 1
   34    75	 1
   34    73	 1
   34    40	 1
   35    38	 1
   35    74	 1
   35    76	 1
   35    77	 1
   35    78	 1
   36    72	 1
   36    40	 1
   36    75	 1
   37    39	 1
   38    70	 1
   38    71	 1
   38    72	 1
   38    73	 1
   39    72	 1
   39    73	 1
   41    43	 1
   41    68	 1
   41    69	 1
   42    67	 1
   43    67	 1
   43    62	 1
   43    63	 1
   44    45	 1
   44    46	 1
   44    47	 1
   48    50	 1
   48    51	 1
   49    50	 1
   49    51	 1
   50    52	 1
   51    52	 1
   52    53	 1
   52    54	 1
   53    55	 1
   53    56	 1
   54    55	 1
   54    56	 1
   55    57	 1
   55    58	 1
   56    57	 1
   56    58	 1
   57    59	 1
   57    60	 1
   57    61	 1
   58    59	 1
   58    60	 1
   58    61	 1
   67    68	 1
   67    69	 1
   73    74	 1
   74    75	 1

[ angles ]
;	ai	  aj	ak funct			c0			  c1			c2			  c3
    2     1    27	5 ;      NG2S1      CG311      CG311
    2     1    18	5 ;      NG2S1      CG311      CG321
    2     1    43	5 ;      NG2S1      CG311       HGA1
   27     1    18	5 ;      CG311      CG311      CG321
   27     1    43	5 ;      CG311      CG311       HGA1
   18     1    43	5 ;      CG321      CG311       HGA1
    3     2     5	5 ;      CG2O1      NG2S1       HGP1
    3     2     1	5 ;      CG2O1      NG2S1      CG311
    5     2     1	5 ;       HGP1      NG2S1      CG311
    6     3     4	5 ;      CG311      CG2O1      OG2D1
    6     3     2	5 ;      CG311      CG2O1      NG2S1
    4     3     2	5 ;      OG2D1      CG2O1      NG2S1
    8     6     7	5 ;     NG2R53      CG311      CG331
    8     6     3	5 ;     NG2R53      CG311      CG2O1
    8     6    44	5 ;     NG2R53      CG311       HGA1
    7     6     3	5 ;      CG331      CG311      CG2O1
    7     6    44	5 ;      CG331      CG311       HGA1
    3     6    44	5 ;      CG2O1      CG311       HGA1
    6     7    45	5 ;      CG311      CG331       HGA3
    6     7    46	5 ;      CG311      CG331       HGA3
    6     7    47	5 ;      CG311      CG331       HGA3
   45     7    46	5 ;       HGA3      CG331       HGA3
   45     7    47	5 ;       HGA3      CG331       HGA3
   46     7    47	5 ;       HGA3      CG331       HGA3
    9     8     6	5 ;     CG3C52     NG2R53      CG311
    9     8    12	5 ;     CG3C52     NG2R53     CG2R53
    6     8    12	5 ;      CG311     NG2R53     CG2R53
   10     9     8	5 ;     CG3C52     CG3C52     NG2R53
   10     9    48	5 ;     CG3C52     CG3C52       HGA2
   10     9    49	5 ;     CG3C52     CG3C52       HGA2
    8     9    48	5 ;     NG2R53     CG3C52       HGA2
    8     9    49	5 ;     NG2R53     CG3C52       HGA2
   48     9    49	5 ;       HGA2     CG3C52       HGA2
    9    10    11	5 ;     CG3C52     CG3C52     CG3C51
    9    10    50	5 ;     CG3C52     CG3C52       HGA2
    9    10    51	5 ;     CG3C52     CG3C52       HGA2
   11    10    50	5 ;     CG3C51     CG3C52       HGA2
   11    10    51	5 ;     CG3C51     CG3C52       HGA2
   50    10    51	5 ;       HGA2     CG3C52       HGA2
   10    11    12	5 ;     CG3C52     CG3C51     CG2R53
   10    11    14	5 ;     CG3C52     CG3C51      CG321
   10    11    52	5 ;     CG3C52     CG3C51       HGA1
   12    11    14	5 ;     CG2R53     CG3C51      CG321
   12    11    52	5 ;     CG2R53     CG3C51       HGA1
   14    11    52	5 ;      CG321     CG3C51       HGA1
    8    12    11	5 ;     NG2R53     CG2R53     CG3C51
    8    12    13	5 ;     NG2R53     CG2R53      OG2D1
   11    12    13	5 ;     CG3C51     CG2R53      OG2D1
   11    14    15	5 ;     CG3C51      CG321      CG321
   11    14    53	5 ;     CG3C51      CG321       HGA2
   11    14    54	5 ;     CG3C51      CG321       HGA2
   15    14    53	5 ;      CG321      CG321       HGA2
   15    14    54	5 ;      CG321      CG321       HGA2
   53    14    54	5 ;       HGA2      CG321       HGA2
   14    15    16	5 ;      CG321      CG321      CG321
   14    15    55	5 ;      CG321      CG321       HGA2
   14    15    56	5 ;      CG321      CG321       HGA2
   16    15    55	5 ;      CG321      CG321       HGA2
   16    15    56	5 ;      CG321      CG321       HGA2
   55    15    56	5 ;       HGA2      CG321       HGA2
   17    16    15	5 ;      CG331      CG321      CG321
   17    16    57	5 ;      CG331      CG321       HGA2
   17    16    58	5 ;      CG331      CG321       HGA2
   15    16    57	5 ;      CG321      CG321       HGA2
   15    16    58	5 ;      CG321      CG321       HGA2
   57    16    58	5 ;       HGA2      CG321       HGA2
   16    17    59	5 ;      CG321      CG331       HGA3
   16    17    60	5 ;      CG321      CG331       HGA3
   16    17    61	5 ;      CG321      CG331       HGA3
   59    17    60	5 ;       HGA3      CG331       HGA3
   59    17    61	5 ;       HGA3      CG331       HGA3
   60    17    61	5 ;       HGA3      CG331       HGA3
    1    18    19	5 ;      CG311      CG321     CG2R61
    1    18    62	5 ;      CG311      CG321       HGA2
    1    18    63	5 ;      CG311      CG321       HGA2
   19    18    62	5 ;     CG2R61      CG321       HGA2
   19    18    63	5 ;     CG2R61      CG321       HGA2
   62    18    63	5 ;       HGA2      CG321       HGA2
   20    19    18	5 ;     CG2R61     CG2R61      CG321
   20    19    25	5 ;     CG2R61     CG2R61     CG2R61
   18    19    25	5 ;      CG321     CG2R61     CG2R61
   21    20    19	5 ;     CG2R66     CG2R61     CG2R61
   21    20    64	5 ;     CG2R66     CG2R61      HGR62
   19    20    64	5 ;     CG2R61     CG2R61      HGR62
   22    21    20	5 ;       FGR1     CG2R66     CG2R61
   22    21    23	5 ;       FGR1     CG2R66     CG2R61
   20    21    23	5 ;     CG2R61     CG2R66     CG2R61
   21    23    24	5 ;     CG2R66     CG2R61     CG2R66
   21    23    65	5 ;     CG2R66     CG2R61      HGR62
   24    23    65	5 ;     CG2R66     CG2R61      HGR62
   23    24    25	5 ;     CG2R61     CG2R66     CG2R61
   23    24    26	5 ;     CG2R61     CG2R66       FGR1
   25    24    26	5 ;     CG2R61     CG2R66       FGR1
   19    25    24	5 ;     CG2R61     CG2R61     CG2R66
   19    25    66	5 ;     CG2R61     CG2R61      HGR62
   24    25    66	5 ;     CG2R66     CG2R61      HGR62
   28    27     1	5 ;      CG324      CG311      CG311
   28    27    41	5 ;      CG324      CG311      OG311
   28    27    67	5 ;      CG324      CG311       HGA1
    1    27    41	5 ;      CG311      CG311      OG311
    1    27    67	5 ;      CG311      CG311       HGA1
   41    27    67	5 ;      OG311      CG311       HGA1
   29    28    27	5 ;      NG3P2      CG324      CG311
   29    28    68	5 ;      NG3P2      CG324       HGA2
   29    28    69	5 ;      NG3P2      CG324       HGA2
   27    28    68	5 ;      CG311      CG324       HGA2
   27    28    69	5 ;      CG311      CG324       HGA2
   68    28    69	5 ;       HGA2      CG324       HGA2
   30    29    28	5 ;       HGP2      NG3P2      CG324
   30    29    31	5 ;       HGP2      NG3P2       HGP2
   30    29    32	5 ;       HGP2      NG3P2      CG324
   28    29    31	5 ;      CG324      NG3P2       HGP2
   28    29    32	5 ;      CG324      NG3P2      CG324
   31    29    32	5 ;       HGP2      NG3P2      CG324
   29    32    33	5 ;      NG3P2      CG324     CG2R61
   29    32    70	5 ;      NG3P2      CG324       HGA2
   29    32    71	5 ;      NG3P2      CG324       HGA2
   33    32    70	5 ;     CG2R61      CG324       HGA2
   33    32    71	5 ;     CG2R61      CG324       HGA2
   70    32    71	5 ;       HGA2      CG324       HGA2
   32    33    38	5 ;      CG324     CG2R61     CG2R61
   32    33    34	5 ;      CG324     CG2R61     CG2R61
   38    33    34	5 ;     CG2R61     CG2R61     CG2R61
   33    34    35	5 ;     CG2R61     CG2R61     CG2R61
   33    34    72	5 ;     CG2R61     CG2R61      HGR61
   35    34    72	5 ;     CG2R61     CG2R61      HGR61
   34    35    36	5 ;     CG2R61     CG2R61     CG2R61
   34    35    39	5 ;     CG2R61     CG2R61      OG301
   36    35    39	5 ;     CG2R61     CG2R61      OG301
   37    36    35	5 ;     CG2R61     CG2R61     CG2R61
   37    36    73	5 ;     CG2R61     CG2R61      HGR61
   35    36    73	5 ;     CG2R61     CG2R61      HGR61
   38    37    36	5 ;     CG2R61     CG2R61     CG2R61
   38    37    74	5 ;     CG2R61     CG2R61      HGR61
   36    37    74	5 ;     CG2R61     CG2R61      HGR61
   33    38    37	5 ;     CG2R61     CG2R61     CG2R61
   33    38    75	5 ;     CG2R61     CG2R61      HGR61
   37    38    75	5 ;     CG2R61     CG2R61      HGR61
   35    39    40	5 ;     CG2R61      OG301      CG331
   39    40    76	5 ;      OG301      CG331       HGA3
   39    40    77	5 ;      OG301      CG331       HGA3
   39    40    78	5 ;      OG301      CG331       HGA3
   76    40    77	5 ;       HGA3      CG331       HGA3
   76    40    78	5 ;       HGA3      CG331       HGA3
   77    40    78	5 ;       HGA3      CG331       HGA3
   27    41    42	5 ;      CG311      OG311       HGP1

[ dihedrals ]
;	ai	  aj	ak	  al funct			  c0			c1			  c2			c3			  c4			c5
   27     1     2     3	 9 ;      CG311      CG311      NG2S1      CG2O1
   27     1     2     5	 9 ;      CG311      CG311      NG2S1       HGP1
   18     1     2     3	 9 ;      CG321      CG311      NG2S1      CG2O1
   18     1     2     5	 9 ;      CG321      CG311      NG2S1       HGP1
   43     1     2     3	 9 ;       HGA1      CG311      NG2S1      CG2O1
   43     1     2     5	 9 ;       HGA1      CG311      NG2S1       HGP1
    2     1    27    28	 9 ;      NG2S1      CG311      CG311      CG324
    2     1    27    41	 9 ;      NG2S1      CG311      CG311      OG311
    2     1    27    67	 9 ;      NG2S1      CG311      CG311       HGA1
   18     1    27    28	 9 ;      CG321      CG311      CG311      CG324
   18     1    27    41	 9 ;      CG321      CG311      CG311      OG311
   18     1    27    67	 9 ;      CG321      CG311      CG311       HGA1
   43     1    27    28	 9 ;       HGA1      CG311      CG311      CG324
   43     1    27    41	 9 ;       HGA1      CG311      CG311      OG311
   43     1    27    67	 9 ;       HGA1      CG311      CG311       HGA1
    2     1    18    19	 9 ;      NG2S1      CG311      CG321     CG2R61
    2     1    18    62	 9 ;      NG2S1      CG311      CG321       HGA2
    2     1    18    63	 9 ;      NG2S1      CG311      CG321       HGA2
   27     1    18    19	 9 ;      CG311      CG311      CG321     CG2R61
   27     1    18    62	 9 ;      CG311      CG311      CG321       HGA2
   27     1    18    63	 9 ;      CG311      CG311      CG321       HGA2
   43     1    18    19	 9 ;       HGA1      CG311      CG321     CG2R61
   43     1    18    62	 9 ;       HGA1      CG311      CG321       HGA2
   43     1    18    63	 9 ;       HGA1      CG311      CG321       HGA2
    5     2     3     6	 9 ;       HGP1      NG2S1      CG2O1      CG311
    5     2     3     4	 9 ;       HGP1      NG2S1      CG2O1      OG2D1
    1     2     3     6	 9 ;      CG311      NG2S1      CG2O1      CG311
    1     2     3     4	 9 ;      CG311      NG2S1      CG2O1      OG2D1
    4     3     6     8	 9 ;      OG2D1      CG2O1      CG311     NG2R53
    4     3     6     7	 9 ;      OG2D1      CG2O1      CG311      CG331
    4     3     6    44	 9 ;      OG2D1      CG2O1      CG311       HGA1
    2     3     6     8	 9 ;      NG2S1      CG2O1      CG311     NG2R53
    2     3     6     7	 9 ;      NG2S1      CG2O1      CG311      CG331
    2     3     6    44	 9 ;      NG2S1      CG2O1      CG311       HGA1
    7     6     8     9	 9 ;      CG331      CG311     NG2R53     CG3C52
    7     6     8    12	 9 ;      CG331      CG311     NG2R53     CG2R53
    3     6     8     9	 9 ;      CG2O1      CG311     NG2R53     CG3C52
    3     6     8    12	 9 ;      CG2O1      CG311     NG2R53     CG2R53
   44     6     8     9	 9 ;       HGA1      CG311     NG2R53     CG3C52
   44     6     8    12	 9 ;       HGA1      CG311     NG2R53     CG2R53
    8     6     7    45	 9 ;     NG2R53      CG311      CG331       HGA3
    8     6     7    46	 9 ;     NG2R53      CG311      CG331       HGA3
    8     6     7    47	 9 ;     NG2R53      CG311      CG331       HGA3
    3     6     7    45	 9 ;      CG2O1      CG311      CG331       HGA3
    3     6     7    46	 9 ;      CG2O1      CG311      CG331       HGA3
    3     6     7    47	 9 ;      CG2O1      CG311      CG331       HGA3
   44     6     7    45	 9 ;       HGA1      CG311      CG331       HGA3
   44     6     7    46	 9 ;       HGA1      CG311      CG331       HGA3
   44     6     7    47	 9 ;       HGA1      CG311      CG331       HGA3
    6     8     9    10	 9 ;      CG311     NG2R53     CG3C52     CG3C52
    6     8     9    48	 9 ;      CG311     NG2R53     CG3C52       HGA2
    6     8     9    49	 9 ;      CG311     NG2R53     CG3C52       HGA2
   12     8     9    10	 9 ;     CG2R53     NG2R53     CG3C52     CG3C52
   12     8     9    48	 9 ;     CG2R53     NG2R53     CG3C52       HGA2
   12     8     9    49	 9 ;     CG2R53     NG2R53     CG3C52       HGA2
    9     8    12    11	 9 ;     CG3C52     NG2R53     CG2R53     CG3C51
    9     8    12    13	 9 ;     CG3C52     NG2R53     CG2R53      OG2D1
    6     8    12    11	 9 ;      CG311     NG2R53     CG2R53     CG3C51
    6     8    12    13	 9 ;      CG311     NG2R53     CG2R53      OG2D1
    8     9    10    11	 9 ;     NG2R53     CG3C52     CG3C52     CG3C51
    8     9    10    50	 9 ;     NG2R53     CG3C52     CG3C52       HGA2
    8     9    10    51	 9 ;     NG2R53     CG3C52     CG3C52       HGA2
   48     9    10    11	 9 ;       HGA2     CG3C52     CG3C52     CG3C51
   48     9    10    50	 9 ;       HGA2     CG3C52     CG3C52       HGA2
   48     9    10    51	 9 ;       HGA2     CG3C52     CG3C52       HGA2
   49     9    10    11	 9 ;       HGA2     CG3C52     CG3C52     CG3C51
   49     9    10    50	 9 ;       HGA2     CG3C52     CG3C52       HGA2
   49     9    10    51	 9 ;       HGA2     CG3C52     CG3C52       HGA2
    9    10    11    12	 9 ;     CG3C52     CG3C52     CG3C51     CG2R53
    9    10    11    14	 9 ;     CG3C52     CG3C52     CG3C51      CG321
    9    10    11    52	 9 ;     CG3C52     CG3C52     CG3C51       HGA1
   50    10    11    12	 9 ;       HGA2     CG3C52     CG3C51     CG2R53
   50    10    11    14	 9 ;       HGA2     CG3C52     CG3C51      CG321
   50    10    11    52	 9 ;       HGA2     CG3C52     CG3C51       HGA1
   51    10    11    12	 9 ;       HGA2     CG3C52     CG3C51     CG2R53
   51    10    11    14	 9 ;       HGA2     CG3C52     CG3C51      CG321
   51    10    11    52	 9 ;       HGA2     CG3C52     CG3C51       HGA1
   10    11    12     8	 9 ;     CG3C52     CG3C51     CG2R53     NG2R53
   10    11    12    13	 9 ;     CG3C52     CG3C51     CG2R53      OG2D1
   14    11    12     8	 9 ;      CG321     CG3C51     CG2R53     NG2R53
   14    11    12    13	 9 ;      CG321     CG3C51     CG2R53      OG2D1
   52    11    12     8	 9 ;       HGA1     CG3C51     CG2R53     NG2R53
   52    11    12    13	 9 ;       HGA1     CG3C51     CG2R53      OG2D1
   10    11    14    15	 9 ;     CG3C52     CG3C51      CG321      CG321
   10    11    14    53	 9 ;     CG3C52     CG3C51      CG321       HGA2
   10    11    14    54	 9 ;     CG3C52     CG3C51      CG321       HGA2
   12    11    14    15	 9 ;     CG2R53     CG3C51      CG321      CG321
   12    11    14    53	 9 ;     CG2R53     CG3C51      CG321       HGA2
   12    11    14    54	 9 ;     CG2R53     CG3C51      CG321       HGA2
   52    11    14    15	 9 ;       HGA1     CG3C51      CG321      CG321
   52    11    14    53	 9 ;       HGA1     CG3C51      CG321       HGA2
   52    11    14    54	 9 ;       HGA1     CG3C51      CG321       HGA2
   11    14    15    16	 9 ;     CG3C51      CG321      CG321      CG321
   11    14    15    55	 9 ;     CG3C51      CG321      CG321       HGA2
   11    14    15    56	 9 ;     CG3C51      CG321      CG321       HGA2
   53    14    15    16	 9 ;       HGA2      CG321      CG321      CG321
   53    14    15    55	 9 ;       HGA2      CG321      CG321       HGA2
   53    14    15    56	 9 ;       HGA2      CG321      CG321       HGA2
   54    14    15    16	 9 ;       HGA2      CG321      CG321      CG321
   54    14    15    55	 9 ;       HGA2      CG321      CG321       HGA2
   54    14    15    56	 9 ;       HGA2      CG321      CG321       HGA2
   14    15    16    17	 9 ;      CG321      CG321      CG321      CG331
   14    15    16    57	 9 ;      CG321      CG321      CG321       HGA2
   14    15    16    58	 9 ;      CG321      CG321      CG321       HGA2
   55    15    16    17	 9 ;       HGA2      CG321      CG321      CG331
   55    15    16    57	 9 ;       HGA2      CG321      CG321       HGA2
   55    15    16    58	 9 ;       HGA2      CG321      CG321       HGA2
   56    15    16    17	 9 ;       HGA2      CG321      CG321      CG331
   56    15    16    57	 9 ;       HGA2      CG321      CG321       HGA2
   56    15    16    58	 9 ;       HGA2      CG321      CG321       HGA2
   15    16    17    59	 9 ;      CG321      CG321      CG331       HGA3
   15    16    17    60	 9 ;      CG321      CG321      CG331       HGA3
   15    16    17    61	 9 ;      CG321      CG321      CG331       HGA3
   57    16    17    59	 9 ;       HGA2      CG321      CG331       HGA3
   57    16    17    60	 9 ;       HGA2      CG321      CG331       HGA3
   57    16    17    61	 9 ;       HGA2      CG321      CG331       HGA3
   58    16    17    59	 9 ;       HGA2      CG321      CG331       HGA3
   58    16    17    60	 9 ;       HGA2      CG321      CG331       HGA3
   58    16    17    61	 9 ;       HGA2      CG321      CG331       HGA3
    1    18    19    20	 9 ;      CG311      CG321     CG2R61     CG2R61
    1    18    19    25	 9 ;      CG311      CG321     CG2R61     CG2R61
   62    18    19    20	 9 ;       HGA2      CG321     CG2R61     CG2R61
   62    18    19    25	 9 ;       HGA2      CG321     CG2R61     CG2R61
   63    18    19    20	 9 ;       HGA2      CG321     CG2R61     CG2R61
   63    18    19    25	 9 ;       HGA2      CG321     CG2R61     CG2R61
   18    19    20    21	 9 ;      CG321     CG2R61     CG2R61     CG2R66
   18    19    20    64	 9 ;      CG321     CG2R61     CG2R61      HGR62
   25    19    20    21	 9 ;     CG2R61     CG2R61     CG2R61     CG2R66
   25    19    20    64	 9 ;     CG2R61     CG2R61     CG2R61      HGR62
   20    19    25    24	 9 ;     CG2R61     CG2R61     CG2R61     CG2R66
   20    19    25    66	 9 ;     CG2R61     CG2R61     CG2R61      HGR62
   18    19    25    24	 9 ;      CG321     CG2R61     CG2R61     CG2R66
   18    19    25    66	 9 ;      CG321     CG2R61     CG2R61      HGR62
   19    20    21    22	 9 ;     CG2R61     CG2R61     CG2R66       FGR1
   19    20    21    23	 9 ;     CG2R61     CG2R61     CG2R66     CG2R61
   64    20    21    22	 9 ;      HGR62     CG2R61     CG2R66       FGR1
   64    20    21    23	 9 ;      HGR62     CG2R61     CG2R66     CG2R61
   22    21    23    24	 9 ;       FGR1     CG2R66     CG2R61     CG2R66
   22    21    23    65	 9 ;       FGR1     CG2R66     CG2R61      HGR62
   20    21    23    24	 9 ;     CG2R61     CG2R66     CG2R61     CG2R66
   20    21    23    65	 9 ;     CG2R61     CG2R66     CG2R61      HGR62
   21    23    24    25	 9 ;     CG2R66     CG2R61     CG2R66     CG2R61
   21    23    24    26	 9 ;     CG2R66     CG2R61     CG2R66       FGR1
   65    23    24    25	 9 ;      HGR62     CG2R61     CG2R66     CG2R61
   65    23    24    26	 9 ;      HGR62     CG2R61     CG2R66       FGR1
   23    24    25    19	 9 ;     CG2R61     CG2R66     CG2R61     CG2R61
   23    24    25    66	 9 ;     CG2R61     CG2R66     CG2R61      HGR62
   26    24    25    19	 9 ;       FGR1     CG2R66     CG2R61     CG2R61
   26    24    25    66	 9 ;       FGR1     CG2R66     CG2R61      HGR62
    1    27    28    29	 9 ;      CG311      CG311      CG324      NG3P2
    1    27    28    68	 9 ;      CG311      CG311      CG324       HGA2
    1    27    28    69	 9 ;      CG311      CG311      CG324       HGA2
   41    27    28    29	 9 ;      OG311      CG311      CG324      NG3P2
   41    27    28    68	 9 ;      OG311      CG311      CG324       HGA2
   41    27    28    69	 9 ;      OG311      CG311      CG324       HGA2
   67    27    28    29	 9 ;       HGA1      CG311      CG324      NG3P2
   67    27    28    68	 9 ;       HGA1      CG311      CG324       HGA2
   67    27    28    69	 9 ;       HGA1      CG311      CG324       HGA2
   28    27    41    42	 9 ;      CG324      CG311      OG311       HGP1
    1    27    41    42	 9 ;      CG311      CG311      OG311       HGP1
   67    27    41    42	 9 ;       HGA1      CG311      OG311       HGP1
   27    28    29    30	 9 ;      CG311      CG324      NG3P2       HGP2
   27    28    29    31	 9 ;      CG311      CG324      NG3P2       HGP2
   27    28    29    32	 9 ;      CG311      CG324      NG3P2      CG324
   68    28    29    30	 9 ;       HGA2      CG324      NG3P2       HGP2
   68    28    29    31	 9 ;       HGA2      CG324      NG3P2       HGP2
   68    28    29    32	 9 ;       HGA2      CG324      NG3P2      CG324
   69    28    29    30	 9 ;       HGA2      CG324      NG3P2       HGP2
   69    28    29    31	 9 ;       HGA2      CG324      NG3P2       HGP2
   69    28    29    32	 9 ;       HGA2      CG324      NG3P2      CG324
   30    29    32    33	 9 ;       HGP2      NG3P2      CG324     CG2R61
   30    29    32    70	 9 ;       HGP2      NG3P2      CG324       HGA2
   30    29    32    71	 9 ;       HGP2      NG3P2      CG324       HGA2
   28    29    32    33	 9 ;      CG324      NG3P2      CG324     CG2R61
   28    29    32    70	 9 ;      CG324      NG3P2      CG324       HGA2
   28    29    32    71	 9 ;      CG324      NG3P2      CG324       HGA2
   31    29    32    33	 9 ;       HGP2      NG3P2      CG324     CG2R61
   31    29    32    70	 9 ;       HGP2      NG3P2      CG324       HGA2
   31    29    32    71	 9 ;       HGP2      NG3P2      CG324       HGA2
   29    32    33    38	 9 ;      NG3P2      CG324     CG2R61     CG2R61
   29    32    33    34	 9 ;      NG3P2      CG324     CG2R61     CG2R61
   70    32    33    38	 9 ;       HGA2      CG324     CG2R61     CG2R61
   70    32    33    34	 9 ;       HGA2      CG324     CG2R61     CG2R61
   71    32    33    38	 9 ;       HGA2      CG324     CG2R61     CG2R61
   71    32    33    34	 9 ;       HGA2      CG324     CG2R61     CG2R61
   32    33    38    37	 9 ;      CG324     CG2R61     CG2R61     CG2R61
   32    33    38    75	 9 ;      CG324     CG2R61     CG2R61      HGR61
   34    33    38    37	 9 ;     CG2R61     CG2R61     CG2R61     CG2R61
   34    33    38    75	 9 ;     CG2R61     CG2R61     CG2R61      HGR61
   32    33    34    35	 9 ;      CG324     CG2R61     CG2R61     CG2R61
   32    33    34    72	 9 ;      CG324     CG2R61     CG2R61      HGR61
   38    33    34    35	 9 ;     CG2R61     CG2R61     CG2R61     CG2R61
   38    33    34    72	 9 ;     CG2R61     CG2R61     CG2R61      HGR61
   33    34    35    36	 9 ;     CG2R61     CG2R61     CG2R61     CG2R61
   33    34    35    39	 9 ;     CG2R61     CG2R61     CG2R61      OG301
   72    34    35    36	 9 ;      HGR61     CG2R61     CG2R61     CG2R61
   72    34    35    39	 9 ;      HGR61     CG2R61     CG2R61      OG301
   34    35    36    37	 9 ;     CG2R61     CG2R61     CG2R61     CG2R61
   34    35    36    73	 9 ;     CG2R61     CG2R61     CG2R61      HGR61
   39    35    36    37	 9 ;      OG301     CG2R61     CG2R61     CG2R61
   39    35    36    73	 9 ;      OG301     CG2R61     CG2R61      HGR61
   34    35    39    40	 9 ;     CG2R61     CG2R61      OG301      CG331
   36    35    39    40	 9 ;     CG2R61     CG2R61      OG301      CG331
   35    36    37    38	 9 ;     CG2R61     CG2R61     CG2R61     CG2R61
   35    36    37    74	 9 ;     CG2R61     CG2R61     CG2R61      HGR61
   73    36    37    38	 9 ;      HGR61     CG2R61     CG2R61     CG2R61
   73    36    37    74	 9 ;      HGR61     CG2R61     CG2R61      HGR61
   36    37    38    33	 9 ;     CG2R61     CG2R61     CG2R61     CG2R61
   36    37    38    75	 9 ;     CG2R61     CG2R61     CG2R61      HGR61
   74    37    38    33	 9 ;      HGR61     CG2R61     CG2R61     CG2R61
   74    37    38    75	 9 ;      HGR61     CG2R61     CG2R61      HGR61
   35    39    40    76	 9 ;     CG2R61      OG301      CG331       HGA3
   35    39    40    77	 9 ;     CG2R61      OG301      CG331       HGA3
   35    39    40    78	 9 ;     CG2R61      OG301      CG331       HGA3

[ dihedrals ]
;	ai	  aj	ak	  al funct			  c0			c1			  c2			c3
    3     6     2     4	 2
   12    11     8    13	 2

