S  C  A  M  O  R  G
   78
    1LIG     C1    1  -1.567   0.706  -1.504
    1LIG     N1    2  -1.457   0.662  -1.592
    1LIG     C2    3  -1.477   0.579  -1.700
    1LIG     O1    4  -1.591   0.543  -1.731
    1LIG     H1    5  -1.365   0.659  -1.551
    1LIG     C3    6  -1.351   0.525  -1.774
    1LIG     C4    7  -1.224   0.608  -1.750
    1LIG     N2    8  -1.323   0.383  -1.752
    1LIG     C5    9  -1.272   0.293  -1.853
    1LIG     C6   10  -1.271   0.160  -1.781
    1LIG     C7   11  -1.235   0.197  -1.637
    1LIG     C8   12  -1.301   0.333  -1.624
    1LIG     O2   13  -1.322   0.392  -1.519
    1LIG     C9   14  -1.084   0.208  -1.617
    1LIG    C10   15  -1.023   0.097  -1.531
    1LIG    C11   16  -1.014  -0.037  -1.603
    1LIG    C12   17  -0.935  -0.026  -1.732
    1LIG    C13   18  -1.531   0.683  -1.353
    1LIG    C14   19  -1.566   0.544  -1.304
    1LIG    C15   20  -1.634   0.451  -1.385
    1LIG    C16   21  -1.686   0.334  -1.329
    1LIG     F1   22  -1.759   0.253  -1.407
    1LIG    C17   23  -1.667   0.303  -1.196
    1LIG    C18   24  -1.593   0.390  -1.118
    1LIG    C19   25  -1.542   0.508  -1.171
    1LIG     F2   26  -1.573   0.363  -0.988
    1LIG    C20   27  -1.599   0.855  -1.531
    1LIG    C21   28  -1.734   0.881  -1.600
    1LIG     N3   29  -1.810   0.749  -1.604
    1LIG     H2   30  -1.821   0.717  -1.701
    1LIG     H3   31  -1.748   0.680  -1.558
    1LIG    C22   32  -1.942   0.749  -1.536
    1LIG    C23   33  -1.936   0.690  -1.398
    1LIG    C24   34  -1.881   0.765  -1.292
    1LIG    C25   35  -1.875   0.710  -1.164
    1LIG    C26   36  -1.921   0.580  -1.143
    1LIG    C27   37  -1.977   0.507  -1.247
    1LIG    C28   38  -1.985   0.562  -1.375
    1LIG     O3   39  -1.823   0.773  -1.055
    1LIG    C29   40  -1.755   0.690  -0.962
    1LIG     O4   41  -1.600   0.938  -1.415
    1LIG     H4   42  -1.688   0.935  -1.372
    1LIG     H5   43  -1.654   0.647  -1.526
    1LIG     H6   44  -1.378   0.538  -1.877
    1LIG     H7   45  -1.194   0.598  -1.648
    1LIG     H8   46  -1.243   0.711  -1.772
    1LIG     H9   47  -1.145   0.572  -1.814
    1LIG    H10   48  -1.336   0.290  -1.938
    1LIG    H11   49  -1.176   0.322  -1.890
    1LIG    H12   50  -1.198   0.094  -1.823
    1LIG    H13   51  -1.364   0.108  -1.789
    1LIG    H14   52  -1.268   0.125  -1.565
    1LIG    H15   53  -1.063   0.302  -1.570
    1LIG    H16   54  -1.039   0.199  -1.714
    1LIG    H17   55  -1.083   0.085  -1.443
    1LIG    H18   56  -0.922   0.127  -1.508
    1LIG    H19   57  -0.967  -0.108  -1.539
    1LIG    H20   58  -1.114  -0.069  -1.627
    1LIG    H21   59  -0.835   0.005  -1.710
    1LIG    H22   60  -0.982   0.045  -1.796
    1LIG    H23   61  -0.933  -0.122  -1.781
    1LIG    H24   62  -1.585   0.755  -1.294
    1LIG    H25   63  -1.425   0.695  -1.344
    1LIG    H26   64  -1.646   0.470  -1.486
    1LIG    H27   65  -1.709   0.218  -1.155
    1LIG    H28   66  -1.485   0.571  -1.111
    1LIG    H29   67  -1.518   0.880  -1.596
    1LIG    H30   68  -1.790   0.954  -1.545
    1LIG    H31   69  -1.719   0.918  -1.699
    1LIG    H32   70  -2.011   0.692  -1.595
    1LIG    H33   71  -1.974   0.851  -1.526
    1LIG    H34   72  -1.844   0.859  -1.310
    1LIG    H35   73  -1.914   0.538  -1.049
    1LIG    H36   74  -2.013   0.411  -1.230
    1LIG    H37   75  -2.028   0.507  -1.452
    1LIG    H38   76  -1.718   0.749  -0.881
    1LIG    H39   77  -1.673   0.641  -1.010
    1LIG    H40   78  -1.822   0.616  -0.924
   0.00000   0.00000   0.00000
