GROwing Monsters And Cloning Shrimps
   49
    1LIG     C1    1  -1.316   0.430  -1.631
    1LIG     N1    2  -1.306   0.375  -1.770
    1LIG    HN1    3  -1.377   0.324  -1.821
    1LIG     C2    4  -1.189   0.407  -1.809
    1LIG     O1    5  -1.111   0.488  -1.735
    1LIG     C3    6  -1.197   0.529  -1.628
    1LIG     N2    7  -1.131   0.369  -1.925
    1LIG     H1    8  -1.196   0.337  -1.996
    1LIG     H2    9  -1.055   0.428  -1.957
    1LIG     C4   10  -1.453   0.498  -1.611
    1LIG     C5   11  -1.566   0.419  -1.583
    1LIG     C6   12  -1.694   0.474  -1.559
    1LIG     C7   13  -1.706   0.613  -1.568
    1LIG     C8   14  -1.596   0.694  -1.596
    1LIG     C9   15  -1.470   0.637  -1.617
    1LIG    C10   16  -1.809   0.387  -1.523
    1LIG    C11   17  -1.865   0.389  -1.395
    1LIG     N3   18  -1.971   0.316  -1.355
    1LIG    C12   19  -2.028   0.235  -1.447
    1LIG    HN2   20  -2.007   0.321  -1.260
    1LIG    C13   21  -1.982   0.225  -1.577
    1LIG    C14   22  -1.872   0.301  -1.613
    1LIG      F   23  -1.827   0.288  -1.739
    1LIG    C15   24  -1.292   0.318  -1.527
    1LIG    C16   25  -1.280   0.184  -1.565
    1LIG    C17   26  -1.251   0.084  -1.471
    1LIG    C18   27  -1.233   0.116  -1.337
    1LIG    C19   28  -1.247   0.249  -1.296
    1LIG    C20   29  -1.276   0.349  -1.390
    1LIG     O2   30  -1.208   0.011  -1.254
    1LIG    C21   31  -1.137  -0.098  -1.311
    1LIG    HC2   32  -1.145   0.524  -1.533
    1LIG    HC3   33  -1.233   0.631  -1.646
    1LIG     HC   34  -1.554   0.312  -1.579
    1LIG    HC1   35  -1.803   0.659  -1.552
    1LIG    HC4   36  -1.609   0.801  -1.603
    1LIG    HC5   37  -1.386   0.701  -1.637
    1LIG    HC6   38  -1.819   0.454  -1.322
    1LIG    HC7   39  -2.114   0.176  -1.418
    1LIG    HC8   40  -2.030   0.159  -1.648
    1LIG    HC9   41  -1.293   0.156  -1.668
    1LIG   HC10   42  -1.242  -0.019  -1.503
    1LIG   HC11   43  -1.236   0.275  -1.192
    1LIG   HC12   44  -1.287   0.451  -1.357
    1LIG   HC13   45  -1.098  -0.162  -1.232
    1LIG   HC14   46  -1.204  -0.156  -1.374
    1LIG   HC15   47  -1.054  -0.060  -1.371
    1LIG    H21   48  -1.147   0.320  -1.759
    1LIG    H22   49  -1.798   0.308  -1.365
   0.00000   0.00000   0.00000
