Good ROcking Metal Altar for Chronical Sinners
   88
    1LIG     C1    1  -1.691   0.407  -1.419
    1LIG     C2    2  -1.764   0.521  -1.502
    1LIG     O1    3  -1.885   0.461  -1.554
    1LIG     H1    4  -1.876   0.385  -1.613
    1LIG     C3    5  -1.810   0.658  -1.426
    1LIG     N1    6  -1.703   0.777  -1.386
    1LIG     C4    7  -1.756   0.927  -1.422
    1LIG     H2    8  -1.680   0.776  -1.286
    1LIG     H3    9  -1.616   0.766  -1.440
    1LIG     C5   10  -1.773   0.932  -1.572
    1LIG     C6   11  -1.812   0.808  -1.620
    1LIG     C7   12  -1.710   1.022  -1.657
    1LIG     C8   13  -1.902   0.731  -1.523
    1LIG     C9   14  -1.730   0.756  -1.721
    1LIG    C10   15  -1.643   0.837  -1.793
    1LIG    C11   16  -1.644   0.974  -1.769
    1LIG     N2   17  -1.542   0.400  -1.431
    1LIG    C12   18  -1.474   0.351  -1.541
    1LIG     O2   19  -1.531   0.285  -1.627
    1LIG     H4   20  -1.493   0.474  -1.381
    1LIG    C13   21  -1.320   0.381  -1.548
    1LIG    C14   22  -1.246   0.301  -1.657
    1LIG    C15   23  -1.094   0.296  -1.627
    1LIG    C16   24  -1.053   0.179  -1.541
    1LIG    C17   25  -1.123   0.057  -1.549
    1LIG    C18   26  -1.083  -0.053  -1.472
    1LIG    C19   27  -0.974  -0.042  -1.386
    1LIG    C20   28  -0.904   0.079  -1.378
    1LIG    C21   29  -0.943   0.188  -1.455
    1LIG     N3   30  -1.303   0.525  -1.566
    1LIG    C22   31  -1.388   0.610  -1.646
    1LIG    C23   32  -1.320   0.746  -1.639
    1LIG    C24   33  -1.249   0.746  -1.504
    1LIG    C25   34  -1.233   0.599  -1.471
    1LIG     O3   35  -1.174   0.552  -1.378
    1LIG    C26   36  -1.112   0.815  -1.507
    1LIG    C27   37  -1.042   0.814  -1.643
    1LIG    C28   38  -0.930   0.918  -1.654
    1LIG    C29   39  -0.944   0.999  -1.782
    1LIG    C30   40  -1.733   0.403  -1.265
    1LIG    C31   41  -1.863   0.328  -1.235
    1LIG    C32   42  -1.977   0.397  -1.196
    1LIG    C33   43  -2.095   0.329  -1.165
    1LIG     F1   44  -2.203   0.399  -1.129
    1LIG    C34   45  -2.101   0.191  -1.168
    1LIG    C35   46  -1.987   0.120  -1.209
    1LIG    C36   47  -1.872   0.187  -1.243
    1LIG     F2   48  -1.994  -0.014  -1.213
    1LIG     HC   49  -1.727   0.313  -1.461
    1LIG    HC1   50  -1.701   0.548  -1.586
    1LIG    HC2   51  -1.867   0.631  -1.337
    1LIG    HC3   52  -1.683   1.001  -1.390
    1LIG    HC4   53  -1.852   0.945  -1.373
    1LIG    HC5   54  -1.713   1.128  -1.637
    1LIG    HC6   55  -1.966   0.801  -1.469
    1LIG    HC7   56  -1.963   0.660  -1.578
    1LIG    HC8   57  -1.734   0.651  -1.744
    1LIG    HC9   58  -1.577   0.794  -1.867
    1LIG   HC10   59  -1.594   1.042  -1.836
    1LIG   HC11   60  -1.277   0.354  -1.452
    1LIG   HC12   61  -1.261   0.349  -1.754
    1LIG   HC13   62  -1.285   0.200  -1.661
    1LIG   HC14   63  -1.041   0.289  -1.722
    1LIG   HC15   64  -1.065   0.388  -1.577
    1LIG   HC16   65  -1.208   0.048  -1.615
    1LIG   HC17   66  -1.137  -0.146  -1.479
    1LIG   HC18   67  -0.943  -0.126  -1.327
    1LIG   HC19   68  -0.819   0.087  -1.312
    1LIG   HC20   69  -0.889   0.281  -1.448
    1LIG   HC21   70  -1.393   0.574  -1.749
    1LIG   HC22   71  -1.488   0.616  -1.603
    1LIG   HC23   72  -1.394   0.826  -1.644
    1LIG   HC24   73  -1.248   0.756  -1.720
    1LIG   HC25   74  -1.312   0.794  -1.429
    1LIG   HC26   75  -1.047   0.764  -1.435
    1LIG   HC27   76  -1.125   0.918  -1.475
    1LIG   HC28   77  -0.999   0.715  -1.659
    1LIG   HC29   78  -1.116   0.834  -1.720
    1LIG   HC30   79  -0.834   0.867  -1.654
    1LIG   HC31   80  -0.935   0.985  -1.568
    1LIG   HC32   81  -0.863   1.072  -1.787
    1LIG   HC33   82  -0.938   0.932  -1.868
    1LIG   HC34   83  -1.040   1.051  -1.782
    1LIG   HC35   84  -1.652   0.355  -1.209
    1LIG   HC36   85  -1.743   0.506  -1.229
    1LIG   HC37   86  -1.974   0.505  -1.189
    1LIG   HC38   87  -2.191   0.138  -1.139
    1LIG   HC39   88  -1.786   0.130  -1.277
   0.00000   0.00000   0.00000
