; Created by cgenff_charmm2gmx.py

[ moleculetype ]
; Name			   nrexcl
LIG				 3

[ atoms ]
;	 nr		  type	resnr residue  atom   cgnr	   charge		mass  typeB    chargeB		massB
; residue	 1 LIG rtp LIG q	qsum
     1      CG311      1    LIG     C1      1     -0.029     12.011   ;
     2      CG311      1    LIG     C2      2      0.111     12.011   ;
     3      OG311      1    LIG     O1      3     -0.598     15.999   ;
     4       HGP1      1    LIG     H1      4      0.422      1.008   ;
     5      CG314      1    LIG     C3      5      0.081     12.011   ;
     6      NG3P2      1    LIG     N1      6     -0.494     14.007   ;
     7      CG324      1    LIG     C4      7      0.181     12.011   ;
     8       HGP2      1    LIG     H2      8      0.346      1.008   ;
     9       HGP2      1    LIG     H3      9      0.346      1.008   ;
    10     CG2R61      1    LIG     C5     10      0.019     12.011   ;
    11     CG2R61      1    LIG     C6     11     -0.193     12.011   ;
    12     CG2R61      1    LIG     C7     12     -0.115     12.011   ;
    13      CG321      1    LIG     C8     13      0.138     12.011   ;
    14     CG2R61      1    LIG     C9     14     -0.116     12.011   ;
    15     CG2R61      1    LIG    C10     15     -0.112     12.011   ;
    16     CG2R61      1    LIG    C11     16     -0.111     12.011   ;
    17      NG2S1      1    LIG     N2     17     -0.385     14.007   ;
    18      CG2O1      1    LIG    C12     18      0.497     12.011   ;
    19      OG2D1      1    LIG     O2     19     -0.509     15.999   ;
    20       HGP1      1    LIG     H4     20      0.269      1.008   ;
    21      CG311      1    LIG    C13     21      0.060     12.011   ;
    22      CG321      1    LIG    C14     22     -0.187     12.011   ;
    23      CG321      1    LIG    C15     23     -0.185     12.011   ;
    24     CG2R61      1    LIG    C16     24      0.007     12.011   ;
    25     CG2R61      1    LIG    C17     25     -0.123     12.011   ;
    26     CG2R61      1    LIG    C18     26     -0.112     12.011   ;
    27     CG2R61      1    LIG    C19     27     -0.116     12.011   ;
    28     CG2R61      1    LIG    C20     28     -0.112     12.011   ;
    29     CG2R61      1    LIG    C21     29     -0.123     12.011   ;
    30     NG2R53      1    LIG     N3     30     -0.083     14.007   ;
    31     CG3C52      1    LIG    C22     31     -0.138     12.011   ;
    32     CG3C52      1    LIG    C23     32     -0.227     12.011   ;
    33     CG3C51      1    LIG    C24     33     -0.082     12.011   ;
    34     CG2R53      1    LIG    C25     34      0.407     12.011   ;
    35      OG2D1      1    LIG     O3     35     -0.496     15.999   ;
    36      CG321      1    LIG    C26     36     -0.155     12.011   ;
    37      CG321      1    LIG    C27     37     -0.178     12.011   ;
    38      CG321      1    LIG    C28     38     -0.177     12.011   ;
    39      CG331      1    LIG    C29     39     -0.270     12.011   ;
    40      CG321      1    LIG    C30     40     -0.095     12.011   ;
    41     CG2R61      1    LIG    C31     41      0.057     12.011   ;
    42     CG2R61      1    LIG    C32     42     -0.218     12.011   ;
    43     CG2R66      1    LIG    C33     43      0.261     12.011   ;
    44       FGR1      1    LIG     F1     44     -0.210     18.998   ;
    45     CG2R61      1    LIG    C34     45     -0.240     12.011   ;
    46     CG2R66      1    LIG    C35     46      0.261     12.011   ;
    47     CG2R61      1    LIG    C36     47     -0.218     12.011   ;
    48       FGR1      1    LIG     F2     48     -0.210     18.998   ;
    49       HGA1      1    LIG     HC     49      0.090      1.008   ;
    50       HGA1      1    LIG    HC1     50      0.090      1.008   ;
    51       HGA1      1    LIG    HC2     51      0.121      1.008   ;
    52       HGA2      1    LIG    HC3     52      0.090      1.008   ;
    53       HGA2      1    LIG    HC4     53      0.090      1.008   ;
    54      HGR61      1    LIG    HC5     54      0.116      1.008   ;
    55       HGA2      1    LIG    HC6     55      0.090      1.008   ;
    56       HGA2      1    LIG    HC7     56      0.090      1.008   ;
    57      HGR61      1    LIG    HC8     57      0.116      1.008   ;
    58      HGR61      1    LIG    HC9     58      0.116      1.008   ;
    59      HGR61      1    LIG   HC10     59      0.116      1.008   ;
    60       HGA1      1    LIG   HC11     60      0.090      1.008   ;
    61       HGA2      1    LIG   HC12     61      0.090      1.008   ;
    62       HGA2      1    LIG   HC13     62      0.090      1.008   ;
    63       HGA2      1    LIG   HC14     63      0.090      1.008   ;
    64       HGA2      1    LIG   HC15     64      0.090      1.008   ;
    65      HGR61      1    LIG   HC16     65      0.116      1.008   ;
    66      HGR61      1    LIG   HC17     66      0.116      1.008   ;
    67      HGR61      1    LIG   HC18     67      0.116      1.008   ;
    68      HGR61      1    LIG   HC19     68      0.116      1.008   ;
    69      HGR61      1    LIG   HC20     69      0.116      1.008   ;
    70       HGA2      1    LIG   HC21     70      0.090      1.008   ;
    71       HGA2      1    LIG   HC22     71      0.090      1.008   ;
    72       HGA2      1    LIG   HC23     72      0.090      1.008   ;
    73       HGA2      1    LIG   HC24     73      0.090      1.008   ;
    74       HGA1      1    LIG   HC25     74      0.115      1.008   ;
    75       HGA2      1    LIG   HC26     75      0.090      1.008   ;
    76       HGA2      1    LIG   HC27     76      0.090      1.008   ;
    77       HGA2      1    LIG   HC28     77      0.090      1.008   ;
    78       HGA2      1    LIG   HC29     78      0.090      1.008   ;
    79       HGA2      1    LIG   HC30     79      0.090      1.008   ;
    80       HGA2      1    LIG   HC31     80      0.090      1.008   ;
    81       HGA3      1    LIG   HC32     81      0.090      1.008   ;
    82       HGA3      1    LIG   HC33     82      0.090      1.008   ;
    83       HGA3      1    LIG   HC34     83      0.090      1.008   ;
    84       HGA2      1    LIG   HC35     84      0.090      1.008   ;
    85       HGA2      1    LIG   HC36     85      0.090      1.008   ;
    86      HGR62      1    LIG   HC37     86      0.174      1.008   ;
    87      HGR62      1    LIG   HC38     87      0.186      1.008   ;
    88      HGR62      1    LIG   HC39     88      0.174      1.008   ;

[ bonds ]
;	ai	  aj funct			  c0			c1			  c2			c3
    1    17	 1 ;       CG311      NG2S1
    1     2	 1 ;       CG311      CG311
    1    40	 1 ;       CG311      CG321
    1    49	 1 ;       CG311       HGA1
    2     5	 1 ;       CG311      CG314
    2     3	 1 ;       CG311      OG311
    2    50	 1 ;       CG311       HGA1
    3     4	 1 ;       OG311       HGP1
    5     6	 1 ;       CG314      NG3P2
    5    13	 1 ;       CG314      CG321
    5    51	 1 ;       CG314       HGA1
    6     9	 1 ;       NG3P2       HGP2
    6     7	 1 ;       NG3P2      CG324
    6     8	 1 ;       NG3P2       HGP2
    7    10	 1 ;       CG324     CG2R61
    7    52	 1 ;       CG324       HGA2
    7    53	 1 ;       CG324       HGA2
   10    12	 1 ;      CG2R61     CG2R61
   10    11	 1 ;      CG2R61     CG2R61
   11    14	 1 ;      CG2R61     CG2R61
   11    13	 1 ;      CG2R61      CG321
   12    16	 1 ;      CG2R61     CG2R61
   12    54	 1 ;      CG2R61      HGR61
   13    55	 1 ;       CG321       HGA2
   13    56	 1 ;       CG321       HGA2
   14    15	 1 ;      CG2R61     CG2R61
   14    57	 1 ;      CG2R61      HGR61
   15    16	 1 ;      CG2R61     CG2R61
   15    58	 1 ;      CG2R61      HGR61
   16    59	 1 ;      CG2R61      HGR61
   17    18	 1 ;       NG2S1      CG2O1
   17    20	 1 ;       NG2S1       HGP1
   18    21	 1 ;       CG2O1      CG311
   18    19	 1 ;       CG2O1      OG2D1
   21    22	 1 ;       CG311      CG321
   21    30	 1 ;       CG311     NG2R53
   21    60	 1 ;       CG311       HGA1
   22    23	 1 ;       CG321      CG321
   22    61	 1 ;       CG321       HGA2
   22    62	 1 ;       CG321       HGA2
   23    24	 1 ;       CG321     CG2R61
   23    63	 1 ;       CG321       HGA2
   23    64	 1 ;       CG321       HGA2
   24    29	 1 ;      CG2R61     CG2R61
   24    25	 1 ;      CG2R61     CG2R61
   25    26	 1 ;      CG2R61     CG2R61
   25    65	 1 ;      CG2R61      HGR61
   26    27	 1 ;      CG2R61     CG2R61
   26    66	 1 ;      CG2R61      HGR61
   27    28	 1 ;      CG2R61     CG2R61
   27    67	 1 ;      CG2R61      HGR61
   28    29	 1 ;      CG2R61     CG2R61
   28    68	 1 ;      CG2R61      HGR61
   29    69	 1 ;      CG2R61      HGR61
   30    31	 1 ;      NG2R53     CG3C52
   30    34	 1 ;      NG2R53     CG2R53
   31    32	 1 ;      CG3C52     CG3C52
   31    70	 1 ;      CG3C52       HGA2
   31    71	 1 ;      CG3C52       HGA2
   32    33	 1 ;      CG3C52     CG3C51
   32    72	 1 ;      CG3C52       HGA2
   32    73	 1 ;      CG3C52       HGA2
   33    36	 1 ;      CG3C51      CG321
   33    34	 1 ;      CG3C51     CG2R53
   33    74	 1 ;      CG3C51       HGA1
   34    35	 1 ;      CG2R53      OG2D1
   36    37	 1 ;       CG321      CG321
   36    75	 1 ;       CG321       HGA2
   36    76	 1 ;       CG321       HGA2
   37    38	 1 ;       CG321      CG321
   37    77	 1 ;       CG321       HGA2
   37    78	 1 ;       CG321       HGA2
   38    39	 1 ;       CG321      CG331
   38    79	 1 ;       CG321       HGA2
   38    80	 1 ;       CG321       HGA2
   39    81	 1 ;       CG331       HGA3
   39    82	 1 ;       CG331       HGA3
   39    83	 1 ;       CG331       HGA3
   40    41	 1 ;       CG321     CG2R61
   40    84	 1 ;       CG321       HGA2
   40    85	 1 ;       CG321       HGA2
   41    47	 1 ;      CG2R61     CG2R61
   41    42	 1 ;      CG2R61     CG2R61
   42    43	 1 ;      CG2R61     CG2R66
   42    86	 1 ;      CG2R61      HGR62
   43    45	 1 ;      CG2R66     CG2R61
   43    44	 1 ;      CG2R66       FGR1
   45    46	 1 ;      CG2R61     CG2R66
   45    87	 1 ;      CG2R61      HGR62
   46    47	 1 ;      CG2R66     CG2R61
   46    48	 1 ;      CG2R66       FGR1
   47    88	 1 ;      CG2R61      HGR62

[ pairs ]
;	ai	  aj funct			  c0			c1			  c2			c3
    1     6	 1
    1    13	 1
    1    51	 1
    1     4	 1
    1    21	 1
    1    19	 1
    1    47	 1
    1    42	 1
    2    18	 1
    2    20	 1
    2    41	 1
    2    84	 1
    2    85	 1
    2     9	 1
    2     7	 1
    2     8	 1
    2    11	 1
    2    55	 1
    2    56	 1
    3    17	 1
    3    40	 1
    3    49	 1
    3     6	 1
    3    13	 1
    3    51	 1
    4     5	 1
    4    50	 1
    5    17	 1
    5    40	 1
    5    49	 1
    5    10	 1
    5    52	 1
    5    53	 1
    5    14	 1
    6    50	 1
    6    11	 1
    6    55	 1
    6    56	 1
    6    12	 1
    7    13	 1
    7    51	 1
    7    16	 1
    7    54	 1
    7    14	 1
    8    13	 1
    8    51	 1
    8    10	 1
    8    52	 1
    8    53	 1
    9    13	 1
    9    51	 1
    9    10	 1
    9    52	 1
    9    53	 1
   10    15	 1
   10    57	 1
   10    55	 1
   10    56	 1
   10    59	 1
   11    51	 1
   11    52	 1
   11    53	 1
   11    16	 1
   11    54	 1
   11    58	 1
   12    52	 1
   12    53	 1
   12    14	 1
   12    13	 1
   12    58	 1
   13    50	 1
   13    15	 1
   13    57	 1
   14    55	 1
   14    56	 1
   14    59	 1
   15    54	 1
   16    57	 1
   17    50	 1
   17    41	 1
   17    84	 1
   17    85	 1
   17    22	 1
   17    30	 1
   17    60	 1
   18    40	 1
   18    49	 1
   18    23	 1
   18    61	 1
   18    62	 1
   18    31	 1
   18    34	 1
   19    20	 1
   19    22	 1
   19    30	 1
   19    60	 1
   20    40	 1
   20    49	 1
   20    21	 1
   21    24	 1
   21    63	 1
   21    64	 1
   21    32	 1
   21    70	 1
   21    71	 1
   21    33	 1
   21    35	 1
   22    31	 1
   22    34	 1
   22    29	 1
   22    25	 1
   23    30	 1
   23    60	 1
   23    28	 1
   23    69	 1
   23    26	 1
   23    65	 1
   24    61	 1
   24    62	 1
   24    27	 1
   24    66	 1
   24    68	 1
   25    63	 1
   25    64	 1
   25    28	 1
   25    69	 1
   25    67	 1
   26    29	 1
   26    68	 1
   27    65	 1
   27    69	 1
   28    66	 1
   29    63	 1
   29    64	 1
   29    65	 1
   29    67	 1
   30    61	 1
   30    62	 1
   30    72	 1
   30    73	 1
   30    36	 1
   30    74	 1
   31    60	 1
   31    35	 1
   31    36	 1
   31    74	 1
   32    37	 1
   32    75	 1
   32    76	 1
   32    35	 1
   33    70	 1
   33    71	 1
   33    38	 1
   33    77	 1
   33    78	 1
   34    60	 1
   34    70	 1
   34    71	 1
   34    72	 1
   34    73	 1
   34    37	 1
   34    75	 1
   34    76	 1
   35    36	 1
   35    74	 1
   36    72	 1
   36    73	 1
   36    39	 1
   36    79	 1
   36    80	 1
   37    74	 1
   37    81	 1
   37    82	 1
   37    83	 1
   38    75	 1
   38    76	 1
   39    77	 1
   39    78	 1
   40    50	 1
   40    46	 1
   40    88	 1
   40    43	 1
   40    86	 1
   41    49	 1
   41    45	 1
   41    44	 1
   41    48	 1
   42    84	 1
   42    85	 1
   42    46	 1
   42    88	 1
   42    87	 1
   43    47	 1
   43    48	 1
   44    86	 1
   44    46	 1
   44    87	 1
   45    86	 1
   45    88	 1
   47    84	 1
   47    85	 1
   47    86	 1
   47    87	 1
   48    87	 1
   48    88	 1
   49    50	 1
   49    84	 1
   49    85	 1
   50    51	 1
   51    55	 1
   51    56	 1
   54    59	 1
   57    58	 1
   58    59	 1
   60    61	 1
   60    62	 1
   61    63	 1
   61    64	 1
   62    63	 1
   62    64	 1
   65    66	 1
   66    67	 1
   67    68	 1
   68    69	 1
   70    72	 1
   70    73	 1
   71    72	 1
   71    73	 1
   72    74	 1
   73    74	 1
   74    75	 1
   74    76	 1
   75    77	 1
   75    78	 1
   76    77	 1
   76    78	 1
   77    79	 1
   77    80	 1
   78    79	 1
   78    80	 1
   79    81	 1
   79    82	 1
   79    83	 1
   80    81	 1
   80    82	 1
   80    83	 1

[ angles ]
;	ai	  aj	ak funct			c0			  c1			c2			  c3
   17     1     2	5 ;      NG2S1      CG311      CG311
   17     1    40	5 ;      NG2S1      CG311      CG321
   17     1    49	5 ;      NG2S1      CG311       HGA1
    2     1    40	5 ;      CG311      CG311      CG321
    2     1    49	5 ;      CG311      CG311       HGA1
   40     1    49	5 ;      CG321      CG311       HGA1
    5     2     1	5 ;      CG314      CG311      CG311
    5     2     3	5 ;      CG314      CG311      OG311
    5     2    50	5 ;      CG314      CG311       HGA1
    1     2     3	5 ;      CG311      CG311      OG311
    1     2    50	5 ;      CG311      CG311       HGA1
    3     2    50	5 ;      OG311      CG311       HGA1
    2     3     4	5 ;      CG311      OG311       HGP1
    6     5     2	5 ;      NG3P2      CG314      CG311
    6     5    13	5 ;      NG3P2      CG314      CG321
    6     5    51	5 ;      NG3P2      CG314       HGA1
    2     5    13	5 ;      CG311      CG314      CG321
    2     5    51	5 ;      CG311      CG314       HGA1
   13     5    51	5 ;      CG321      CG314       HGA1
    9     6     7	5 ;       HGP2      NG3P2      CG324
    9     6     8	5 ;       HGP2      NG3P2       HGP2
    9     6     5	5 ;       HGP2      NG3P2      CG314
    7     6     8	5 ;      CG324      NG3P2       HGP2
    7     6     5	5 ;      CG324      NG3P2      CG314
    8     6     5	5 ;       HGP2      NG3P2      CG314
   10     7     6	5 ;     CG2R61      CG324      NG3P2
   10     7    52	5 ;     CG2R61      CG324       HGA2
   10     7    53	5 ;     CG2R61      CG324       HGA2
    6     7    52	5 ;      NG3P2      CG324       HGA2
    6     7    53	5 ;      NG3P2      CG324       HGA2
   52     7    53	5 ;       HGA2      CG324       HGA2
   12    10    11	5 ;     CG2R61     CG2R61     CG2R61
   12    10     7	5 ;     CG2R61     CG2R61      CG324
   11    10     7	5 ;     CG2R61     CG2R61      CG324
   14    11    10	5 ;     CG2R61     CG2R61     CG2R61
   14    11    13	5 ;     CG2R61     CG2R61      CG321
   10    11    13	5 ;     CG2R61     CG2R61      CG321
   16    12    10	5 ;     CG2R61     CG2R61     CG2R61
   16    12    54	5 ;     CG2R61     CG2R61      HGR61
   10    12    54	5 ;     CG2R61     CG2R61      HGR61
   11    13     5	5 ;     CG2R61      CG321      CG314
   11    13    55	5 ;     CG2R61      CG321       HGA2
   11    13    56	5 ;     CG2R61      CG321       HGA2
    5    13    55	5 ;      CG314      CG321       HGA2
    5    13    56	5 ;      CG314      CG321       HGA2
   55    13    56	5 ;       HGA2      CG321       HGA2
   15    14    11	5 ;     CG2R61     CG2R61     CG2R61
   15    14    57	5 ;     CG2R61     CG2R61      HGR61
   11    14    57	5 ;     CG2R61     CG2R61      HGR61
   16    15    14	5 ;     CG2R61     CG2R61     CG2R61
   16    15    58	5 ;     CG2R61     CG2R61      HGR61
   14    15    58	5 ;     CG2R61     CG2R61      HGR61
   15    16    12	5 ;     CG2R61     CG2R61     CG2R61
   15    16    59	5 ;     CG2R61     CG2R61      HGR61
   12    16    59	5 ;     CG2R61     CG2R61      HGR61
   18    17    20	5 ;      CG2O1      NG2S1       HGP1
   18    17     1	5 ;      CG2O1      NG2S1      CG311
   20    17     1	5 ;       HGP1      NG2S1      CG311
   21    18    19	5 ;      CG311      CG2O1      OG2D1
   21    18    17	5 ;      CG311      CG2O1      NG2S1
   19    18    17	5 ;      OG2D1      CG2O1      NG2S1
   22    21    30	5 ;      CG321      CG311     NG2R53
   22    21    18	5 ;      CG321      CG311      CG2O1
   22    21    60	5 ;      CG321      CG311       HGA1
   30    21    18	5 ;     NG2R53      CG311      CG2O1
   30    21    60	5 ;     NG2R53      CG311       HGA1
   18    21    60	5 ;      CG2O1      CG311       HGA1
   23    22    21	5 ;      CG321      CG321      CG311
   23    22    61	5 ;      CG321      CG321       HGA2
   23    22    62	5 ;      CG321      CG321       HGA2
   21    22    61	5 ;      CG311      CG321       HGA2
   21    22    62	5 ;      CG311      CG321       HGA2
   61    22    62	5 ;       HGA2      CG321       HGA2
   22    23    24	5 ;      CG321      CG321     CG2R61
   22    23    63	5 ;      CG321      CG321       HGA2
   22    23    64	5 ;      CG321      CG321       HGA2
   24    23    63	5 ;     CG2R61      CG321       HGA2
   24    23    64	5 ;     CG2R61      CG321       HGA2
   63    23    64	5 ;       HGA2      CG321       HGA2
   23    24    29	5 ;      CG321     CG2R61     CG2R61
   23    24    25	5 ;      CG321     CG2R61     CG2R61
   29    24    25	5 ;     CG2R61     CG2R61     CG2R61
   24    25    26	5 ;     CG2R61     CG2R61     CG2R61
   24    25    65	5 ;     CG2R61     CG2R61      HGR61
   26    25    65	5 ;     CG2R61     CG2R61      HGR61
   25    26    27	5 ;     CG2R61     CG2R61     CG2R61
   25    26    66	5 ;     CG2R61     CG2R61      HGR61
   27    26    66	5 ;     CG2R61     CG2R61      HGR61
   28    27    26	5 ;     CG2R61     CG2R61     CG2R61
   28    27    67	5 ;     CG2R61     CG2R61      HGR61
   26    27    67	5 ;     CG2R61     CG2R61      HGR61
   29    28    27	5 ;     CG2R61     CG2R61     CG2R61
   29    28    68	5 ;     CG2R61     CG2R61      HGR61
   27    28    68	5 ;     CG2R61     CG2R61      HGR61
   24    29    28	5 ;     CG2R61     CG2R61     CG2R61
   24    29    69	5 ;     CG2R61     CG2R61      HGR61
   28    29    69	5 ;     CG2R61     CG2R61      HGR61
   31    30    34	5 ;     CG3C52     NG2R53     CG2R53
   31    30    21	5 ;     CG3C52     NG2R53      CG311
   34    30    21	5 ;     CG2R53     NG2R53      CG311
   32    31    30	5 ;     CG3C52     CG3C52     NG2R53
   32    31    70	5 ;     CG3C52     CG3C52       HGA2
   32    31    71	5 ;     CG3C52     CG3C52       HGA2
   30    31    70	5 ;     NG2R53     CG3C52       HGA2
   30    31    71	5 ;     NG2R53     CG3C52       HGA2
   70    31    71	5 ;       HGA2     CG3C52       HGA2
   33    32    31	5 ;     CG3C51     CG3C52     CG3C52
   33    32    72	5 ;     CG3C51     CG3C52       HGA2
   33    32    73	5 ;     CG3C51     CG3C52       HGA2
   31    32    72	5 ;     CG3C52     CG3C52       HGA2
   31    32    73	5 ;     CG3C52     CG3C52       HGA2
   72    32    73	5 ;       HGA2     CG3C52       HGA2
   36    33    32	5 ;      CG321     CG3C51     CG3C52
   36    33    34	5 ;      CG321     CG3C51     CG2R53
   36    33    74	5 ;      CG321     CG3C51       HGA1
   32    33    34	5 ;     CG3C52     CG3C51     CG2R53
   32    33    74	5 ;     CG3C52     CG3C51       HGA1
   34    33    74	5 ;     CG2R53     CG3C51       HGA1
   33    34    30	5 ;     CG3C51     CG2R53     NG2R53
   33    34    35	5 ;     CG3C51     CG2R53      OG2D1
   30    34    35	5 ;     NG2R53     CG2R53      OG2D1
   37    36    33	5 ;      CG321      CG321     CG3C51
   37    36    75	5 ;      CG321      CG321       HGA2
   37    36    76	5 ;      CG321      CG321       HGA2
   33    36    75	5 ;     CG3C51      CG321       HGA2
   33    36    76	5 ;     CG3C51      CG321       HGA2
   75    36    76	5 ;       HGA2      CG321       HGA2
   38    37    36	5 ;      CG321      CG321      CG321
   38    37    77	5 ;      CG321      CG321       HGA2
   38    37    78	5 ;      CG321      CG321       HGA2
   36    37    77	5 ;      CG321      CG321       HGA2
   36    37    78	5 ;      CG321      CG321       HGA2
   77    37    78	5 ;       HGA2      CG321       HGA2
   39    38    37	5 ;      CG331      CG321      CG321
   39    38    79	5 ;      CG331      CG321       HGA2
   39    38    80	5 ;      CG331      CG321       HGA2
   37    38    79	5 ;      CG321      CG321       HGA2
   37    38    80	5 ;      CG321      CG321       HGA2
   79    38    80	5 ;       HGA2      CG321       HGA2
   38    39    81	5 ;      CG321      CG331       HGA3
   38    39    82	5 ;      CG321      CG331       HGA3
   38    39    83	5 ;      CG321      CG331       HGA3
   81    39    82	5 ;       HGA3      CG331       HGA3
   81    39    83	5 ;       HGA3      CG331       HGA3
   82    39    83	5 ;       HGA3      CG331       HGA3
    1    40    41	5 ;      CG311      CG321     CG2R61
    1    40    84	5 ;      CG311      CG321       HGA2
    1    40    85	5 ;      CG311      CG321       HGA2
   41    40    84	5 ;     CG2R61      CG321       HGA2
   41    40    85	5 ;     CG2R61      CG321       HGA2
   84    40    85	5 ;       HGA2      CG321       HGA2
   40    41    47	5 ;      CG321     CG2R61     CG2R61
   40    41    42	5 ;      CG321     CG2R61     CG2R61
   47    41    42	5 ;     CG2R61     CG2R61     CG2R61
   41    42    43	5 ;     CG2R61     CG2R61     CG2R66
   41    42    86	5 ;     CG2R61     CG2R61      HGR62
   43    42    86	5 ;     CG2R66     CG2R61      HGR62
   42    43    45	5 ;     CG2R61     CG2R66     CG2R61
   42    43    44	5 ;     CG2R61     CG2R66       FGR1
   45    43    44	5 ;     CG2R61     CG2R66       FGR1
   46    45    43	5 ;     CG2R66     CG2R61     CG2R66
   46    45    87	5 ;     CG2R66     CG2R61      HGR62
   43    45    87	5 ;     CG2R66     CG2R61      HGR62
   47    46    48	5 ;     CG2R61     CG2R66       FGR1
   47    46    45	5 ;     CG2R61     CG2R66     CG2R61
   48    46    45	5 ;       FGR1     CG2R66     CG2R61
   41    47    46	5 ;     CG2R61     CG2R61     CG2R66
   41    47    88	5 ;     CG2R61     CG2R61      HGR62
   46    47    88	5 ;     CG2R66     CG2R61      HGR62

[ dihedrals ]
;	ai	  aj	ak	  al funct			  c0			c1			  c2			c3			  c4			c5
    2     1    17    18	 9 ;      CG311      CG311      NG2S1      CG2O1
    2     1    17    20	 9 ;      CG311      CG311      NG2S1       HGP1
   40     1    17    18	 9 ;      CG321      CG311      NG2S1      CG2O1
   40     1    17    20	 9 ;      CG321      CG311      NG2S1       HGP1
   49     1    17    18	 9 ;       HGA1      CG311      NG2S1      CG2O1
   49     1    17    20	 9 ;       HGA1      CG311      NG2S1       HGP1
   17     1     2     5	 9 ;      NG2S1      CG311      CG311      CG314
   17     1     2     3	 9 ;      NG2S1      CG311      CG311      OG311
   17     1     2    50	 9 ;      NG2S1      CG311      CG311       HGA1
   40     1     2     5	 9 ;      CG321      CG311      CG311      CG314
   40     1     2     3	 9 ;      CG321      CG311      CG311      OG311
   40     1     2    50	 9 ;      CG321      CG311      CG311       HGA1
   49     1     2     5	 9 ;       HGA1      CG311      CG311      CG314
   49     1     2     3	 9 ;       HGA1      CG311      CG311      OG311
   49     1     2    50	 9 ;       HGA1      CG311      CG311       HGA1
   17     1    40    41	 9 ;      NG2S1      CG311      CG321     CG2R61
   17     1    40    84	 9 ;      NG2S1      CG311      CG321       HGA2
   17     1    40    85	 9 ;      NG2S1      CG311      CG321       HGA2
    2     1    40    41	 9 ;      CG311      CG311      CG321     CG2R61
    2     1    40    84	 9 ;      CG311      CG311      CG321       HGA2
    2     1    40    85	 9 ;      CG311      CG311      CG321       HGA2
   49     1    40    41	 9 ;       HGA1      CG311      CG321     CG2R61
   49     1    40    84	 9 ;       HGA1      CG311      CG321       HGA2
   49     1    40    85	 9 ;       HGA1      CG311      CG321       HGA2
    1     2     5     6	 9 ;      CG311      CG311      CG314      NG3P2
    1     2     5    13	 9 ;      CG311      CG311      CG314      CG321
    1     2     5    51	 9 ;      CG311      CG311      CG314       HGA1
    3     2     5     6	 9 ;      OG311      CG311      CG314      NG3P2
    3     2     5    13	 9 ;      OG311      CG311      CG314      CG321
    3     2     5    51	 9 ;      OG311      CG311      CG314       HGA1
   50     2     5     6	 9 ;       HGA1      CG311      CG314      NG3P2
   50     2     5    13	 9 ;       HGA1      CG311      CG314      CG321
   50     2     5    51	 9 ;       HGA1      CG311      CG314       HGA1
    5     2     3     4	 9 ;      CG314      CG311      OG311       HGP1
    1     2     3     4	 9 ;      CG311      CG311      OG311       HGP1
   50     2     3     4	 9 ;       HGA1      CG311      OG311       HGP1
    2     5     6     9	 9 ;      CG311      CG314      NG3P2       HGP2
    2     5     6     7	 9 ;      CG311      CG314      NG3P2      CG324
    2     5     6     8	 9 ;      CG311      CG314      NG3P2       HGP2
   13     5     6     9	 9 ;      CG321      CG314      NG3P2       HGP2
   13     5     6     7	 9 ;      CG321      CG314      NG3P2      CG324
   13     5     6     8	 9 ;      CG321      CG314      NG3P2       HGP2
   51     5     6     9	 9 ;       HGA1      CG314      NG3P2       HGP2
   51     5     6     7	 9 ;       HGA1      CG314      NG3P2      CG324
   51     5     6     8	 9 ;       HGA1      CG314      NG3P2       HGP2
    6     5    13    11	 9 ;      NG3P2      CG314      CG321     CG2R61
    6     5    13    55	 9 ;      NG3P2      CG314      CG321       HGA2
    6     5    13    56	 9 ;      NG3P2      CG314      CG321       HGA2
    2     5    13    11	 9 ;      CG311      CG314      CG321     CG2R61
    2     5    13    55	 9 ;      CG311      CG314      CG321       HGA2
    2     5    13    56	 9 ;      CG311      CG314      CG321       HGA2
   51     5    13    11	 9 ;       HGA1      CG314      CG321     CG2R61
   51     5    13    55	 9 ;       HGA1      CG314      CG321       HGA2
   51     5    13    56	 9 ;       HGA1      CG314      CG321       HGA2
    9     6     7    10	 9 ;       HGP2      NG3P2      CG324     CG2R61
    9     6     7    52	 9 ;       HGP2      NG3P2      CG324       HGA2
    9     6     7    53	 9 ;       HGP2      NG3P2      CG324       HGA2
    8     6     7    10	 9 ;       HGP2      NG3P2      CG324     CG2R61
    8     6     7    52	 9 ;       HGP2      NG3P2      CG324       HGA2
    8     6     7    53	 9 ;       HGP2      NG3P2      CG324       HGA2
    5     6     7    10	 9 ;      CG314      NG3P2      CG324     CG2R61
    5     6     7    52	 9 ;      CG314      NG3P2      CG324       HGA2
    5     6     7    53	 9 ;      CG314      NG3P2      CG324       HGA2
    6     7    10    12	 9 ;      NG3P2      CG324     CG2R61     CG2R61
    6     7    10    11	 9 ;      NG3P2      CG324     CG2R61     CG2R61
   52     7    10    12	 9 ;       HGA2      CG324     CG2R61     CG2R61
   52     7    10    11	 9 ;       HGA2      CG324     CG2R61     CG2R61
   53     7    10    12	 9 ;       HGA2      CG324     CG2R61     CG2R61
   53     7    10    11	 9 ;       HGA2      CG324     CG2R61     CG2R61
   11    10    12    16	 9 ;     CG2R61     CG2R61     CG2R61     CG2R61
   11    10    12    54	 9 ;     CG2R61     CG2R61     CG2R61      HGR61
    7    10    12    16	 9 ;      CG324     CG2R61     CG2R61     CG2R61
    7    10    12    54	 9 ;      CG324     CG2R61     CG2R61      HGR61
   12    10    11    14	 9 ;     CG2R61     CG2R61     CG2R61     CG2R61
   12    10    11    13	 9 ;     CG2R61     CG2R61     CG2R61      CG321
    7    10    11    14	 9 ;      CG324     CG2R61     CG2R61     CG2R61
    7    10    11    13	 9 ;      CG324     CG2R61     CG2R61      CG321
   10    11    14    15	 9 ;     CG2R61     CG2R61     CG2R61     CG2R61
   10    11    14    57	 9 ;     CG2R61     CG2R61     CG2R61      HGR61
   13    11    14    15	 9 ;      CG321     CG2R61     CG2R61     CG2R61
   13    11    14    57	 9 ;      CG321     CG2R61     CG2R61      HGR61
   14    11    13     5	 9 ;     CG2R61     CG2R61      CG321      CG314
   14    11    13    55	 9 ;     CG2R61     CG2R61      CG321       HGA2
   14    11    13    56	 9 ;     CG2R61     CG2R61      CG321       HGA2
   10    11    13     5	 9 ;     CG2R61     CG2R61      CG321      CG314
   10    11    13    55	 9 ;     CG2R61     CG2R61      CG321       HGA2
   10    11    13    56	 9 ;     CG2R61     CG2R61      CG321       HGA2
   10    12    16    15	 9 ;     CG2R61     CG2R61     CG2R61     CG2R61
   10    12    16    59	 9 ;     CG2R61     CG2R61     CG2R61      HGR61
   54    12    16    15	 9 ;      HGR61     CG2R61     CG2R61     CG2R61
   54    12    16    59	 9 ;      HGR61     CG2R61     CG2R61      HGR61
   11    14    15    16	 9 ;     CG2R61     CG2R61     CG2R61     CG2R61
   11    14    15    58	 9 ;     CG2R61     CG2R61     CG2R61      HGR61
   57    14    15    16	 9 ;      HGR61     CG2R61     CG2R61     CG2R61
   57    14    15    58	 9 ;      HGR61     CG2R61     CG2R61      HGR61
   14    15    16    12	 9 ;     CG2R61     CG2R61     CG2R61     CG2R61
   14    15    16    59	 9 ;     CG2R61     CG2R61     CG2R61      HGR61
   58    15    16    12	 9 ;      HGR61     CG2R61     CG2R61     CG2R61
   58    15    16    59	 9 ;      HGR61     CG2R61     CG2R61      HGR61
   20    17    18    21	 9 ;       HGP1      NG2S1      CG2O1      CG311
   20    17    18    19	 9 ;       HGP1      NG2S1      CG2O1      OG2D1
    1    17    18    21	 9 ;      CG311      NG2S1      CG2O1      CG311
    1    17    18    19	 9 ;      CG311      NG2S1      CG2O1      OG2D1
   19    18    21    22	 9 ;      OG2D1      CG2O1      CG311      CG321
   19    18    21    30	 9 ;      OG2D1      CG2O1      CG311     NG2R53
   19    18    21    60	 9 ;      OG2D1      CG2O1      CG311       HGA1
   17    18    21    22	 9 ;      NG2S1      CG2O1      CG311      CG321
   17    18    21    30	 9 ;      NG2S1      CG2O1      CG311     NG2R53
   17    18    21    60	 9 ;      NG2S1      CG2O1      CG311       HGA1
   30    21    22    23	 9 ;     NG2R53      CG311      CG321      CG321
   30    21    22    61	 9 ;     NG2R53      CG311      CG321       HGA2
   30    21    22    62	 9 ;     NG2R53      CG311      CG321       HGA2
   18    21    22    23	 9 ;      CG2O1      CG311      CG321      CG321
   18    21    22    61	 9 ;      CG2O1      CG311      CG321       HGA2
   18    21    22    62	 9 ;      CG2O1      CG311      CG321       HGA2
   60    21    22    23	 9 ;       HGA1      CG311      CG321      CG321
   60    21    22    61	 9 ;       HGA1      CG311      CG321       HGA2
   60    21    22    62	 9 ;       HGA1      CG311      CG321       HGA2
   22    21    30    31	 9 ;      CG321      CG311     NG2R53     CG3C52
   22    21    30    34	 9 ;      CG321      CG311     NG2R53     CG2R53
   18    21    30    31	 9 ;      CG2O1      CG311     NG2R53     CG3C52
   18    21    30    34	 9 ;      CG2O1      CG311     NG2R53     CG2R53
   60    21    30    31	 9 ;       HGA1      CG311     NG2R53     CG3C52
   60    21    30    34	 9 ;       HGA1      CG311     NG2R53     CG2R53
   21    22    23    24	 9 ;      CG311      CG321      CG321     CG2R61
   21    22    23    63	 9 ;      CG311      CG321      CG321       HGA2
   21    22    23    64	 9 ;      CG311      CG321      CG321       HGA2
   61    22    23    24	 9 ;       HGA2      CG321      CG321     CG2R61
   61    22    23    63	 9 ;       HGA2      CG321      CG321       HGA2
   61    22    23    64	 9 ;       HGA2      CG321      CG321       HGA2
   62    22    23    24	 9 ;       HGA2      CG321      CG321     CG2R61
   62    22    23    63	 9 ;       HGA2      CG321      CG321       HGA2
   62    22    23    64	 9 ;       HGA2      CG321      CG321       HGA2
   22    23    24    29	 9 ;      CG321      CG321     CG2R61     CG2R61
   22    23    24    25	 9 ;      CG321      CG321     CG2R61     CG2R61
   63    23    24    29	 9 ;       HGA2      CG321     CG2R61     CG2R61
   63    23    24    25	 9 ;       HGA2      CG321     CG2R61     CG2R61
   64    23    24    29	 9 ;       HGA2      CG321     CG2R61     CG2R61
   64    23    24    25	 9 ;       HGA2      CG321     CG2R61     CG2R61
   23    24    29    28	 9 ;      CG321     CG2R61     CG2R61     CG2R61
   23    24    29    69	 9 ;      CG321     CG2R61     CG2R61      HGR61
   25    24    29    28	 9 ;     CG2R61     CG2R61     CG2R61     CG2R61
   25    24    29    69	 9 ;     CG2R61     CG2R61     CG2R61      HGR61
   23    24    25    26	 9 ;      CG321     CG2R61     CG2R61     CG2R61
   23    24    25    65	 9 ;      CG321     CG2R61     CG2R61      HGR61
   29    24    25    26	 9 ;     CG2R61     CG2R61     CG2R61     CG2R61
   29    24    25    65	 9 ;     CG2R61     CG2R61     CG2R61      HGR61
   24    25    26    27	 9 ;     CG2R61     CG2R61     CG2R61     CG2R61
   24    25    26    66	 9 ;     CG2R61     CG2R61     CG2R61      HGR61
   65    25    26    27	 9 ;      HGR61     CG2R61     CG2R61     CG2R61
   65    25    26    66	 9 ;      HGR61     CG2R61     CG2R61      HGR61
   25    26    27    28	 9 ;     CG2R61     CG2R61     CG2R61     CG2R61
   25    26    27    67	 9 ;     CG2R61     CG2R61     CG2R61      HGR61
   66    26    27    28	 9 ;      HGR61     CG2R61     CG2R61     CG2R61
   66    26    27    67	 9 ;      HGR61     CG2R61     CG2R61      HGR61
   26    27    28    29	 9 ;     CG2R61     CG2R61     CG2R61     CG2R61
   26    27    28    68	 9 ;     CG2R61     CG2R61     CG2R61      HGR61
   67    27    28    29	 9 ;      HGR61     CG2R61     CG2R61     CG2R61
   67    27    28    68	 9 ;      HGR61     CG2R61     CG2R61      HGR61
   27    28    29    24	 9 ;     CG2R61     CG2R61     CG2R61     CG2R61
   27    28    29    69	 9 ;     CG2R61     CG2R61     CG2R61      HGR61
   68    28    29    24	 9 ;      HGR61     CG2R61     CG2R61     CG2R61
   68    28    29    69	 9 ;      HGR61     CG2R61     CG2R61      HGR61
   34    30    31    32	 9 ;     CG2R53     NG2R53     CG3C52     CG3C52
   34    30    31    70	 9 ;     CG2R53     NG2R53     CG3C52       HGA2
   34    30    31    71	 9 ;     CG2R53     NG2R53     CG3C52       HGA2
   21    30    31    32	 9 ;      CG311     NG2R53     CG3C52     CG3C52
   21    30    31    70	 9 ;      CG311     NG2R53     CG3C52       HGA2
   21    30    31    71	 9 ;      CG311     NG2R53     CG3C52       HGA2
   31    30    34    33	 9 ;     CG3C52     NG2R53     CG2R53     CG3C51
   31    30    34    35	 9 ;     CG3C52     NG2R53     CG2R53      OG2D1
   21    30    34    33	 9 ;      CG311     NG2R53     CG2R53     CG3C51
   21    30    34    35	 9 ;      CG311     NG2R53     CG2R53      OG2D1
   30    31    32    33	 9 ;     NG2R53     CG3C52     CG3C52     CG3C51
   30    31    32    72	 9 ;     NG2R53     CG3C52     CG3C52       HGA2
   30    31    32    73	 9 ;     NG2R53     CG3C52     CG3C52       HGA2
   70    31    32    33	 9 ;       HGA2     CG3C52     CG3C52     CG3C51
   70    31    32    72	 9 ;       HGA2     CG3C52     CG3C52       HGA2
   70    31    32    73	 9 ;       HGA2     CG3C52     CG3C52       HGA2
   71    31    32    33	 9 ;       HGA2     CG3C52     CG3C52     CG3C51
   71    31    32    72	 9 ;       HGA2     CG3C52     CG3C52       HGA2
   71    31    32    73	 9 ;       HGA2     CG3C52     CG3C52       HGA2
   31    32    33    36	 9 ;     CG3C52     CG3C52     CG3C51      CG321
   31    32    33    34	 9 ;     CG3C52     CG3C52     CG3C51     CG2R53
   31    32    33    74	 9 ;     CG3C52     CG3C52     CG3C51       HGA1
   72    32    33    36	 9 ;       HGA2     CG3C52     CG3C51      CG321
   72    32    33    34	 9 ;       HGA2     CG3C52     CG3C51     CG2R53
   72    32    33    74	 9 ;       HGA2     CG3C52     CG3C51       HGA1
   73    32    33    36	 9 ;       HGA2     CG3C52     CG3C51      CG321
   73    32    33    34	 9 ;       HGA2     CG3C52     CG3C51     CG2R53
   73    32    33    74	 9 ;       HGA2     CG3C52     CG3C51       HGA1
   32    33    36    37	 9 ;     CG3C52     CG3C51      CG321      CG321
   32    33    36    75	 9 ;     CG3C52     CG3C51      CG321       HGA2
   32    33    36    76	 9 ;     CG3C52     CG3C51      CG321       HGA2
   34    33    36    37	 9 ;     CG2R53     CG3C51      CG321      CG321
   34    33    36    75	 9 ;     CG2R53     CG3C51      CG321       HGA2
   34    33    36    76	 9 ;     CG2R53     CG3C51      CG321       HGA2
   74    33    36    37	 9 ;       HGA1     CG3C51      CG321      CG321
   74    33    36    75	 9 ;       HGA1     CG3C51      CG321       HGA2
   74    33    36    76	 9 ;       HGA1     CG3C51      CG321       HGA2
   36    33    34    30	 9 ;      CG321     CG3C51     CG2R53     NG2R53
   36    33    34    35	 9 ;      CG321     CG3C51     CG2R53      OG2D1
   32    33    34    30	 9 ;     CG3C52     CG3C51     CG2R53     NG2R53
   32    33    34    35	 9 ;     CG3C52     CG3C51     CG2R53      OG2D1
   74    33    34    30	 9 ;       HGA1     CG3C51     CG2R53     NG2R53
   74    33    34    35	 9 ;       HGA1     CG3C51     CG2R53      OG2D1
   33    36    37    38	 9 ;     CG3C51      CG321      CG321      CG321
   33    36    37    77	 9 ;     CG3C51      CG321      CG321       HGA2
   33    36    37    78	 9 ;     CG3C51      CG321      CG321       HGA2
   75    36    37    38	 9 ;       HGA2      CG321      CG321      CG321
   75    36    37    77	 9 ;       HGA2      CG321      CG321       HGA2
   75    36    37    78	 9 ;       HGA2      CG321      CG321       HGA2
   76    36    37    38	 9 ;       HGA2      CG321      CG321      CG321
   76    36    37    77	 9 ;       HGA2      CG321      CG321       HGA2
   76    36    37    78	 9 ;       HGA2      CG321      CG321       HGA2
   36    37    38    39	 9 ;      CG321      CG321      CG321      CG331
   36    37    38    79	 9 ;      CG321      CG321      CG321       HGA2
   36    37    38    80	 9 ;      CG321      CG321      CG321       HGA2
   77    37    38    39	 9 ;       HGA2      CG321      CG321      CG331
   77    37    38    79	 9 ;       HGA2      CG321      CG321       HGA2
   77    37    38    80	 9 ;       HGA2      CG321      CG321       HGA2
   78    37    38    39	 9 ;       HGA2      CG321      CG321      CG331
   78    37    38    79	 9 ;       HGA2      CG321      CG321       HGA2
   78    37    38    80	 9 ;       HGA2      CG321      CG321       HGA2
   37    38    39    81	 9 ;      CG321      CG321      CG331       HGA3
   37    38    39    82	 9 ;      CG321      CG321      CG331       HGA3
   37    38    39    83	 9 ;      CG321      CG321      CG331       HGA3
   79    38    39    81	 9 ;       HGA2      CG321      CG331       HGA3
   79    38    39    82	 9 ;       HGA2      CG321      CG331       HGA3
   79    38    39    83	 9 ;       HGA2      CG321      CG331       HGA3
   80    38    39    81	 9 ;       HGA2      CG321      CG331       HGA3
   80    38    39    82	 9 ;       HGA2      CG321      CG331       HGA3
   80    38    39    83	 9 ;       HGA2      CG321      CG331       HGA3
    1    40    41    47	 9 ;      CG311      CG321     CG2R61     CG2R61
    1    40    41    42	 9 ;      CG311      CG321     CG2R61     CG2R61
   84    40    41    47	 9 ;       HGA2      CG321     CG2R61     CG2R61
   84    40    41    42	 9 ;       HGA2      CG321     CG2R61     CG2R61
   85    40    41    47	 9 ;       HGA2      CG321     CG2R61     CG2R61
   85    40    41    42	 9 ;       HGA2      CG321     CG2R61     CG2R61
   40    41    47    46	 9 ;      CG321     CG2R61     CG2R61     CG2R66
   40    41    47    88	 9 ;      CG321     CG2R61     CG2R61      HGR62
   42    41    47    46	 9 ;     CG2R61     CG2R61     CG2R61     CG2R66
   42    41    47    88	 9 ;     CG2R61     CG2R61     CG2R61      HGR62
   40    41    42    43	 9 ;      CG321     CG2R61     CG2R61     CG2R66
   40    41    42    86	 9 ;      CG321     CG2R61     CG2R61      HGR62
   47    41    42    43	 9 ;     CG2R61     CG2R61     CG2R61     CG2R66
   47    41    42    86	 9 ;     CG2R61     CG2R61     CG2R61      HGR62
   41    42    43    45	 9 ;     CG2R61     CG2R61     CG2R66     CG2R61
   41    42    43    44	 9 ;     CG2R61     CG2R61     CG2R66       FGR1
   86    42    43    45	 9 ;      HGR62     CG2R61     CG2R66     CG2R61
   86    42    43    44	 9 ;      HGR62     CG2R61     CG2R66       FGR1
   42    43    45    46	 9 ;     CG2R61     CG2R66     CG2R61     CG2R66
   42    43    45    87	 9 ;     CG2R61     CG2R66     CG2R61      HGR62
   44    43    45    46	 9 ;       FGR1     CG2R66     CG2R61     CG2R66
   44    43    45    87	 9 ;       FGR1     CG2R66     CG2R61      HGR62
   43    45    46    47	 9 ;     CG2R66     CG2R61     CG2R66     CG2R61
   43    45    46    48	 9 ;     CG2R66     CG2R61     CG2R66       FGR1
   87    45    46    47	 9 ;      HGR62     CG2R61     CG2R66     CG2R61
   87    45    46    48	 9 ;      HGR62     CG2R61     CG2R66       FGR1
   48    46    47    41	 9 ;       FGR1     CG2R66     CG2R61     CG2R61
   48    46    47    88	 9 ;       FGR1     CG2R66     CG2R61      HGR62
   45    46    47    41	 9 ;     CG2R61     CG2R66     CG2R61     CG2R61
   45    46    47    88	 9 ;     CG2R61     CG2R66     CG2R61      HGR62

[ dihedrals ]
;	ai	  aj	ak	  al funct			  c0			c1			  c2			c3
   18    21    17    19	 2
   34    33    30    35	 2

