; Created by cgenff_charmm2gmx.py

[ moleculetype ]
; Name			   nrexcl
LIG				 3

[ atoms ]
;	 nr		  type	resnr residue  atom   cgnr	   charge		mass  typeB    chargeB		massB
; residue	 1 LIG rtp LIG q	qsum
     1     CG3C50      1    LIG     C1      1      2.034     12.011   ;
     2      NG3P2      1    LIG     N1      2     -0.579     14.007   ;
     3       HGP2      1    LIG    HN3      3      0.364      1.008   ;
     4     CG3C53      1    LIG     C2      4      0.784     12.011   ;
     5     NG2R53      1    LIG     N2      5     -0.209     14.007   ;
     6      CG331      1    LIG     C3      6     -0.169     12.011   ;
     7     CG2R53      1    LIG     C4      7     -0.364     12.011   ;
     8      OG2D1      1    LIG      O      8     -0.296     15.999   ;
     9     CG2R57      1    LIG     C5      9     -1.106     12.011   ;
    10     CG3C52      1    LIG     C6     10      0.146     12.011   ;
    11     NG3C51      1    LIG     N3     11     -0.542     14.007   ;
    12     NG3C51      1    LIG     N4     12     -0.312     14.007   ;
    13     CG2R51      1    LIG     C7     13      0.031     12.011   ;
    14       HGP1      1    LIG    HN4     14      0.305      1.008   ;
    15      CG321      1    LIG     C8     15      0.082     12.011   ;
    16      CG331      1    LIG     C9     16     -0.260     12.011   ;
    17     CG2R61      1    LIG    C10     17     -0.001     12.011   ;
    18     CG2R61      1    LIG    C11     18     -0.167     12.011   ;
    19     CG2R61      1    LIG    C12     19     -0.075     12.011   ;
    20     CG2R66      1    LIG    C13     20      0.006     12.011   ;
    21       FGR1      1    LIG     F1     21     -0.169     18.998   ;
    22     CG2R61      1    LIG    C14     22      0.037     12.011   ;
    23     CG2R61      1    LIG    C15     23     -0.165     12.011   ;
    24     CG2DC1      1    LIG    C16     24     -0.008     12.011   ;
    25     CG2DC2      1    LIG    C17     25     -0.246     12.011   ;
    26     CG2DC2      1    LIG    C18     26     -0.181     12.011   ;
    27      CG321      1    LIG    C19     27     -0.037     12.011   ;
    28      NG311      1    LIG     N5     28     -0.466     14.007   ;
    29     CG2D1O      1    LIG    C20     29      0.321     12.011   ;
    30     HGPAM1      1    LIG    HN5     30      0.324      1.008   ;
    31       FGA1      1    LIG     F2     31     -0.107     18.998   ;
    32      NG3P3      1    LIG     N6     32     -0.267     14.007   ;
    33       HGP2      1    LIG     H1     33      0.301      1.008   ;
    34       HGP2      1    LIG     H2     34      0.301      1.008   ;
    35       HGP2      1    LIG    HN2     35      0.364      1.008   ;
    36       HGA1      1    LIG     HC     36      0.073      1.008   ;
    37       HGA3      1    LIG    HC1     37      0.090      1.008   ;
    38       HGA3      1    LIG    HC2     38      0.090      1.008   ;
    39       HGA3      1    LIG    HC3     39      0.090      1.008   ;
    40       HGA2      1    LIG    HC4     40      0.090      1.008   ;
    41      HGR52      1    LIG    HC5     41      0.158      1.008   ;
    42       HGA2      1    LIG    HC6     42      0.090      1.008   ;
    43       HGA2      1    LIG    HC7     43      0.090      1.008   ;
    44       HGA3      1    LIG    HC8     44      0.090      1.008   ;
    45       HGA3      1    LIG    HC9     45      0.090      1.008   ;
    46       HGA3      1    LIG   HC10     46      0.090      1.008   ;
    47      HGR61      1    LIG   HC11     47      0.116      1.008   ;
    48      HGR62      1    LIG   HC12     48      0.179      1.008   ;
    49      HGR61      1    LIG   HC13     49      0.116      1.008   ;
    50       HGA4      1    LIG   HC14     50      0.153      1.008   ;
    51       HGA4      1    LIG   HC15     51      0.150      1.008   ;
    52       HGA2      1    LIG   HC16     52      0.090      1.008   ;
    53       HGP2      1    LIG    HN1     53      0.301      1.008   ;
    54       HGA2      1    LIG    H25     54      0.090      1.008   ;
    55       HGA2      1    LIG    H26     55      0.090      1.008   ;

[ bonds ]
;	ai	  aj funct			  c0			c1			  c2			c3
    1     2	 1 ;      CG3C50      NG3P2
    1     7	 1 ;      CG3C50     CG2R53
    1    17	 1 ;      CG3C50     CG2R61
    1     9	 1 ;      CG3C50     CG2R57
    2     4	 1 ;       NG3P2     CG3C53
    2     3	 1 ;       NG3P2       HGP2
    2    35	 1 ;       NG3P2       HGP2
    4    32	 1 ;      CG3C53      NG3P3
    4     5	 1 ;      CG3C53     NG2R53
    4    36	 1 ;      CG3C53       HGA1
    5     6	 1 ;      NG2R53      CG331
    5     7	 1 ;      NG2R53     CG2R53
    6    37	 1 ;       CG331       HGA3
    6    38	 1 ;       CG331       HGA3
    6    39	 1 ;       CG331       HGA3
    7     8	 1 ;      CG2R53      OG2D1
    9    13	 1 ;      CG2R57     CG2R51
    9    10	 1 ;      CG2R57     CG3C52
   10    11	 1 ;      CG3C52     NG3C51
   10    40	 1 ;      CG3C52       HGA2
   10    54	 1 ;      CG3C52       HGA2
   11    12	 1 ;      NG3C51     NG3C51
   11    15	 1 ;      NG3C51      CG321
   12    13	 1 ;      NG3C51     CG2R51
   12    14	 1 ;      NG3C51       HGP1
   13    41	 1 ;      CG2R51      HGR52
   15    16	 1 ;       CG321      CG331
   15    42	 1 ;       CG321       HGA2
   15    43	 1 ;       CG321       HGA2
   16    44	 1 ;       CG331       HGA3
   16    45	 1 ;       CG331       HGA3
   16    46	 1 ;       CG331       HGA3
   17    18	 1 ;      CG2R61     CG2R61
   17    23	 1 ;      CG2R61     CG2R61
   18    19	 1 ;      CG2R61     CG2R61
   18    47	 1 ;      CG2R61      HGR61
   19    20	 1 ;      CG2R61     CG2R66
   19    48	 1 ;      CG2R61      HGR62
   20    21	 1 ;      CG2R66       FGR1
   20    22	 1 ;      CG2R66     CG2R61
   22    24	 1 ;      CG2R61     CG2DC1
   22    23	 1 ;      CG2R61     CG2R61
   23    49	 1 ;      CG2R61      HGR61
   24    29	 1 ;      CG2DC1     CG2D1O
   24    25	 1 ;      CG2DC1     CG2DC2
   25    26	 1 ;      CG2DC2     CG2DC2
   25    50	 1 ;      CG2DC2       HGA4
   26    27	 1 ;      CG2DC2      CG321
   26    51	 1 ;      CG2DC2       HGA4
   27    28	 1 ;       CG321      NG311
   27    52	 1 ;       CG321       HGA2
   27    55	 1 ;       CG321       HGA2
   28    30	 1 ;       NG311     HGPAM1
   28    29	 1 ;       NG311     CG2D1O
   29    31	 1 ;      CG2D1O       FGA1
   32    34	 1 ;       NG3P3       HGP2
   32    33	 1 ;       NG3P3       HGP2
   32    53	 1 ;       NG3P3       HGP2

[ pairs ]
;	ai	  aj funct			  c0			c1			  c2			c3
    1    32	 1
    1    36	 1
    1     6	 1
    1    12	 1
    1    41	 1
    1    11	 1
    1    40	 1
    1    54	 1
    1    19	 1
    1    47	 1
    1    22	 1
    1    49	 1
    2     8	 1
    2    18	 1
    2    23	 1
    2    13	 1
    2    10	 1
    2    34	 1
    2    33	 1
    2    53	 1
    2     6	 1
    3     7	 1
    3    17	 1
    3     9	 1
    3    32	 1
    3     5	 1
    3    36	 1
    4    17	 1
    4     9	 1
    4    37	 1
    4    38	 1
    4    39	 1
    4     8	 1
    5    17	 1
    5     9	 1
    5    35	 1
    5    34	 1
    5    33	 1
    5    53	 1
    6    32	 1
    6    36	 1
    6     8	 1
    7    35	 1
    7    18	 1
    7    23	 1
    7    13	 1
    7    10	 1
    7    32	 1
    7    36	 1
    7    37	 1
    7    38	 1
    7    39	 1
    8    17	 1
    8     9	 1
    9    35	 1
    9    18	 1
    9    23	 1
    9    15	 1
    9    14	 1
   10    17	 1
   10    41	 1
   10    14	 1
   10    16	 1
   10    42	 1
   10    43	 1
   11    41	 1
   11    44	 1
   11    45	 1
   11    46	 1
   12    40	 1
   12    54	 1
   12    16	 1
   12    42	 1
   12    43	 1
   13    17	 1
   13    40	 1
   13    54	 1
   13    15	 1
   14    15	 1
   14    41	 1
   15    40	 1
   15    54	 1
   17    35	 1
   17    20	 1
   17    48	 1
   17    24	 1
   18    22	 1
   18    49	 1
   18    21	 1
   19    23	 1
   19    24	 1
   20    47	 1
   20    29	 1
   20    25	 1
   20    49	 1
   21    48	 1
   21    24	 1
   21    23	 1
   22    48	 1
   22    31	 1
   22    28	 1
   22    26	 1
   22    50	 1
   23    47	 1
   23    29	 1
   23    25	 1
   24    49	 1
   24    27	 1
   24    51	 1
   24    30	 1
   25    31	 1
   25    28	 1
   25    52	 1
   25    55	 1
   26    29	 1
   26    30	 1
   27    50	 1
   27    31	 1
   28    51	 1
   29    50	 1
   29    52	 1
   29    55	 1
   30    52	 1
   30    55	 1
   30    31	 1
   32    35	 1
   33    36	 1
   34    36	 1
   35    36	 1
   36    53	 1
   42    44	 1
   42    45	 1
   42    46	 1
   43    44	 1
   43    45	 1
   43    46	 1
   47    48	 1
   50    51	 1
   51    52	 1
   51    55	 1

[ angles ]
;	ai	  aj	ak funct			c0			  c1			c2			  c3
    2     1     7	5 ;      NG3P2     CG3C50     CG2R53
    2     1    17	5 ;      NG3P2     CG3C50     CG2R61
    2     1     9	5 ;      NG3P2     CG3C50     CG2R57
    7     1    17	5 ;     CG2R53     CG3C50     CG2R61
    7     1     9	5 ;     CG2R53     CG3C50     CG2R57
   17     1     9	5 ;     CG2R61     CG3C50     CG2R57
    4     2     3	5 ;     CG3C53      NG3P2       HGP2
    4     2     1	5 ;     CG3C53      NG3P2     CG3C50
    4     2    35	5 ;     CG3C53      NG3P2       HGP2
    3     2     1	5 ;       HGP2      NG3P2     CG3C50
    3     2    35	5 ;       HGP2      NG3P2       HGP2
    1     2    35	5 ;     CG3C50      NG3P2       HGP2
   32     4     5	5 ;      NG3P3     CG3C53     NG2R53
   32     4     2	5 ;      NG3P3     CG3C53      NG3P2
   32     4    36	5 ;      NG3P3     CG3C53       HGA1
    5     4     2	5 ;     NG2R53     CG3C53      NG3P2
    5     4    36	5 ;     NG2R53     CG3C53       HGA1
    2     4    36	5 ;      NG3P2     CG3C53       HGA1
    6     5     4	5 ;      CG331     NG2R53     CG3C53
    6     5     7	5 ;      CG331     NG2R53     CG2R53
    4     5     7	5 ;     CG3C53     NG2R53     CG2R53
    5     6    37	5 ;     NG2R53      CG331       HGA3
    5     6    38	5 ;     NG2R53      CG331       HGA3
    5     6    39	5 ;     NG2R53      CG331       HGA3
   37     6    38	5 ;       HGA3      CG331       HGA3
   37     6    39	5 ;       HGA3      CG331       HGA3
   38     6    39	5 ;       HGA3      CG331       HGA3
    5     7     8	5 ;     NG2R53     CG2R53      OG2D1
    5     7     1	5 ;     NG2R53     CG2R53     CG3C50
    8     7     1	5 ;      OG2D1     CG2R53     CG3C50
    1     9    13	5 ;     CG3C50     CG2R57     CG2R51
    1     9    10	5 ;     CG3C50     CG2R57     CG3C52
   13     9    10	5 ;     CG2R51     CG2R57     CG3C52
    9    10    11	5 ;     CG2R57     CG3C52     NG3C51
    9    10    40	5 ;     CG2R57     CG3C52       HGA2
    9    10    54	5 ;     CG2R57     CG3C52       HGA2
   11    10    40	5 ;     NG3C51     CG3C52       HGA2
   11    10    54	5 ;     NG3C51     CG3C52       HGA2
   40    10    54	5 ;       HGA2     CG3C52       HGA2
   10    11    12	5 ;     CG3C52     NG3C51     NG3C51
   10    11    15	5 ;     CG3C52     NG3C51      CG321
   12    11    15	5 ;     NG3C51     NG3C51      CG321
   13    12    11	5 ;     CG2R51     NG3C51     NG3C51
   13    12    14	5 ;     CG2R51     NG3C51       HGP1
   11    12    14	5 ;     NG3C51     NG3C51       HGP1
    9    13    12	5 ;     CG2R57     CG2R51     NG3C51
    9    13    41	5 ;     CG2R57     CG2R51      HGR52
   12    13    41	5 ;     NG3C51     CG2R51      HGR52
   11    15    16	5 ;     NG3C51      CG321      CG331
   11    15    42	5 ;     NG3C51      CG321       HGA2
   11    15    43	5 ;     NG3C51      CG321       HGA2
   16    15    42	5 ;      CG331      CG321       HGA2
   16    15    43	5 ;      CG331      CG321       HGA2
   42    15    43	5 ;       HGA2      CG321       HGA2
   15    16    44	5 ;      CG321      CG331       HGA3
   15    16    45	5 ;      CG321      CG331       HGA3
   15    16    46	5 ;      CG321      CG331       HGA3
   44    16    45	5 ;       HGA3      CG331       HGA3
   44    16    46	5 ;       HGA3      CG331       HGA3
   45    16    46	5 ;       HGA3      CG331       HGA3
   18    17    23	5 ;     CG2R61     CG2R61     CG2R61
   18    17     1	5 ;     CG2R61     CG2R61     CG3C50
   23    17     1	5 ;     CG2R61     CG2R61     CG3C50
   19    18    17	5 ;     CG2R61     CG2R61     CG2R61
   19    18    47	5 ;     CG2R61     CG2R61      HGR61
   17    18    47	5 ;     CG2R61     CG2R61      HGR61
   20    19    18	5 ;     CG2R66     CG2R61     CG2R61
   20    19    48	5 ;     CG2R66     CG2R61      HGR62
   18    19    48	5 ;     CG2R61     CG2R61      HGR62
   21    20    19	5 ;       FGR1     CG2R66     CG2R61
   21    20    22	5 ;       FGR1     CG2R66     CG2R61
   19    20    22	5 ;     CG2R61     CG2R66     CG2R61
   20    22    24	5 ;     CG2R66     CG2R61     CG2DC1
   20    22    23	5 ;     CG2R66     CG2R61     CG2R61
   24    22    23	5 ;     CG2DC1     CG2R61     CG2R61
   22    23    17	5 ;     CG2R61     CG2R61     CG2R61
   22    23    49	5 ;     CG2R61     CG2R61      HGR61
   17    23    49	5 ;     CG2R61     CG2R61      HGR61
   29    24    22	5 ;     CG2D1O     CG2DC1     CG2R61
   29    24    25	5 ;     CG2D1O     CG2DC1     CG2DC2
   22    24    25	5 ;     CG2R61     CG2DC1     CG2DC2
   24    25    26	5 ;     CG2DC1     CG2DC2     CG2DC2
   24    25    50	5 ;     CG2DC1     CG2DC2       HGA4
   26    25    50	5 ;     CG2DC2     CG2DC2       HGA4
   27    26    25	5 ;      CG321     CG2DC2     CG2DC2
   27    26    51	5 ;      CG321     CG2DC2       HGA4
   25    26    51	5 ;     CG2DC2     CG2DC2       HGA4
   28    27    26	5 ;      NG311      CG321     CG2DC2
   28    27    52	5 ;      NG311      CG321       HGA2
   28    27    55	5 ;      NG311      CG321       HGA2
   26    27    52	5 ;     CG2DC2      CG321       HGA2
   26    27    55	5 ;     CG2DC2      CG321       HGA2
   52    27    55	5 ;       HGA2      CG321       HGA2
   30    28    29	5 ;     HGPAM1      NG311     CG2D1O
   30    28    27	5 ;     HGPAM1      NG311      CG321
   29    28    27	5 ;     CG2D1O      NG311      CG321
   31    29    28	5 ;       FGA1     CG2D1O      NG311
   31    29    24	5 ;       FGA1     CG2D1O     CG2DC1
   28    29    24	5 ;      NG311     CG2D1O     CG2DC1
   34    32    33	5 ;       HGP2      NG3P3       HGP2
   34    32     4	5 ;       HGP2      NG3P3     CG3C53
   34    32    53	5 ;       HGP2      NG3P3       HGP2
   33    32     4	5 ;       HGP2      NG3P3     CG3C53
   33    32    53	5 ;       HGP2      NG3P3       HGP2
    4    32    53	5 ;     CG3C53      NG3P3       HGP2

[ dihedrals ]
;	ai	  aj	ak	  al funct			  c0			c1			  c2			c3			  c4			c5
    7     1     2     4	 9 ;     CG2R53     CG3C50      NG3P2     CG3C53
    7     1     2     3	 9 ;     CG2R53     CG3C50      NG3P2       HGP2
    7     1     2    35	 9 ;     CG2R53     CG3C50      NG3P2       HGP2
   17     1     2     4	 9 ;     CG2R61     CG3C50      NG3P2     CG3C53
   17     1     2     3	 9 ;     CG2R61     CG3C50      NG3P2       HGP2
   17     1     2    35	 9 ;     CG2R61     CG3C50      NG3P2       HGP2
    9     1     2     4	 9 ;     CG2R57     CG3C50      NG3P2     CG3C53
    9     1     2     3	 9 ;     CG2R57     CG3C50      NG3P2       HGP2
    9     1     2    35	 9 ;     CG2R57     CG3C50      NG3P2       HGP2
    2     1     7     5	 9 ;      NG3P2     CG3C50     CG2R53     NG2R53
    2     1     7     8	 9 ;      NG3P2     CG3C50     CG2R53      OG2D1
   17     1     7     5	 9 ;     CG2R61     CG3C50     CG2R53     NG2R53
   17     1     7     8	 9 ;     CG2R61     CG3C50     CG2R53      OG2D1
    9     1     7     5	 9 ;     CG2R57     CG3C50     CG2R53     NG2R53
    9     1     7     8	 9 ;     CG2R57     CG3C50     CG2R53      OG2D1
    2     1    17    18	 9 ;      NG3P2     CG3C50     CG2R61     CG2R61
    2     1    17    23	 9 ;      NG3P2     CG3C50     CG2R61     CG2R61
    7     1    17    18	 9 ;     CG2R53     CG3C50     CG2R61     CG2R61
    7     1    17    23	 9 ;     CG2R53     CG3C50     CG2R61     CG2R61
    9     1    17    18	 9 ;     CG2R57     CG3C50     CG2R61     CG2R61
    9     1    17    23	 9 ;     CG2R57     CG3C50     CG2R61     CG2R61
    2     1     9    13	 9 ;      NG3P2     CG3C50     CG2R57     CG2R51
    2     1     9    10	 9 ;      NG3P2     CG3C50     CG2R57     CG3C52
    7     1     9    13	 9 ;     CG2R53     CG3C50     CG2R57     CG2R51
    7     1     9    10	 9 ;     CG2R53     CG3C50     CG2R57     CG3C52
   17     1     9    13	 9 ;     CG2R61     CG3C50     CG2R57     CG2R51
   17     1     9    10	 9 ;     CG2R61     CG3C50     CG2R57     CG3C52
    3     2     4    32	 9 ;       HGP2      NG3P2     CG3C53      NG3P3
    3     2     4     5	 9 ;       HGP2      NG3P2     CG3C53     NG2R53
    3     2     4    36	 9 ;       HGP2      NG3P2     CG3C53       HGA1
    1     2     4    32	 9 ;     CG3C50      NG3P2     CG3C53      NG3P3
    1     2     4     5	 9 ;     CG3C50      NG3P2     CG3C53     NG2R53
    1     2     4    36	 9 ;     CG3C50      NG3P2     CG3C53       HGA1
   35     2     4    32	 9 ;       HGP2      NG3P2     CG3C53      NG3P3
   35     2     4     5	 9 ;       HGP2      NG3P2     CG3C53     NG2R53
   35     2     4    36	 9 ;       HGP2      NG3P2     CG3C53       HGA1
    5     4    32    34	 9 ;     NG2R53     CG3C53      NG3P3       HGP2
    5     4    32    33	 9 ;     NG2R53     CG3C53      NG3P3       HGP2
    5     4    32    53	 9 ;     NG2R53     CG3C53      NG3P3       HGP2
    2     4    32    34	 9 ;      NG3P2     CG3C53      NG3P3       HGP2
    2     4    32    33	 9 ;      NG3P2     CG3C53      NG3P3       HGP2
    2     4    32    53	 9 ;      NG3P2     CG3C53      NG3P3       HGP2
   36     4    32    34	 9 ;       HGA1     CG3C53      NG3P3       HGP2
   36     4    32    33	 9 ;       HGA1     CG3C53      NG3P3       HGP2
   36     4    32    53	 9 ;       HGA1     CG3C53      NG3P3       HGP2
   32     4     5     6	 9 ;      NG3P3     CG3C53     NG2R53      CG331
   32     4     5     7	 9 ;      NG3P3     CG3C53     NG2R53     CG2R53
    2     4     5     6	 9 ;      NG3P2     CG3C53     NG2R53      CG331
    2     4     5     7	 9 ;      NG3P2     CG3C53     NG2R53     CG2R53
   36     4     5     6	 9 ;       HGA1     CG3C53     NG2R53      CG331
   36     4     5     7	 9 ;       HGA1     CG3C53     NG2R53     CG2R53
    4     5     6    37	 9 ;     CG3C53     NG2R53      CG331       HGA3
    4     5     6    38	 9 ;     CG3C53     NG2R53      CG331       HGA3
    4     5     6    39	 9 ;     CG3C53     NG2R53      CG331       HGA3
    7     5     6    37	 9 ;     CG2R53     NG2R53      CG331       HGA3
    7     5     6    38	 9 ;     CG2R53     NG2R53      CG331       HGA3
    7     5     6    39	 9 ;     CG2R53     NG2R53      CG331       HGA3
    6     5     7     8	 9 ;      CG331     NG2R53     CG2R53      OG2D1
    6     5     7     1	 9 ;      CG331     NG2R53     CG2R53     CG3C50
    4     5     7     8	 9 ;     CG3C53     NG2R53     CG2R53      OG2D1
    4     5     7     1	 9 ;     CG3C53     NG2R53     CG2R53     CG3C50
    1     9    13    12	 9 ;     CG3C50     CG2R57     CG2R51     NG3C51
    1     9    13    41	 9 ;     CG3C50     CG2R57     CG2R51      HGR52
   10     9    13    12	 9 ;     CG3C52     CG2R57     CG2R51     NG3C51
   10     9    13    41	 9 ;     CG3C52     CG2R57     CG2R51      HGR52
    1     9    10    11	 9 ;     CG3C50     CG2R57     CG3C52     NG3C51
    1     9    10    40	 9 ;     CG3C50     CG2R57     CG3C52       HGA2
    1     9    10    54	 9 ;     CG3C50     CG2R57     CG3C52       HGA2
   13     9    10    11	 9 ;     CG2R51     CG2R57     CG3C52     NG3C51
   13     9    10    40	 9 ;     CG2R51     CG2R57     CG3C52       HGA2
   13     9    10    54	 9 ;     CG2R51     CG2R57     CG3C52       HGA2
    9    10    11    12	 9 ;     CG2R57     CG3C52     NG3C51     NG3C51
    9    10    11    15	 9 ;     CG2R57     CG3C52     NG3C51      CG321
   40    10    11    12	 9 ;       HGA2     CG3C52     NG3C51     NG3C51
   40    10    11    15	 9 ;       HGA2     CG3C52     NG3C51      CG321
   54    10    11    12	 9 ;       HGA2     CG3C52     NG3C51     NG3C51
   54    10    11    15	 9 ;       HGA2     CG3C52     NG3C51      CG321
   10    11    12    13	 9 ;     CG3C52     NG3C51     NG3C51     CG2R51
   10    11    12    14	 9 ;     CG3C52     NG3C51     NG3C51       HGP1
   15    11    12    13	 9 ;      CG321     NG3C51     NG3C51     CG2R51
   15    11    12    14	 9 ;      CG321     NG3C51     NG3C51       HGP1
   10    11    15    16	 9 ;     CG3C52     NG3C51      CG321      CG331
   10    11    15    42	 9 ;     CG3C52     NG3C51      CG321       HGA2
   10    11    15    43	 9 ;     CG3C52     NG3C51      CG321       HGA2
   12    11    15    16	 9 ;     NG3C51     NG3C51      CG321      CG331
   12    11    15    42	 9 ;     NG3C51     NG3C51      CG321       HGA2
   12    11    15    43	 9 ;     NG3C51     NG3C51      CG321       HGA2
   11    12    13     9	 9 ;     NG3C51     NG3C51     CG2R51     CG2R57
   11    12    13    41	 9 ;     NG3C51     NG3C51     CG2R51      HGR52
   14    12    13     9	 9 ;       HGP1     NG3C51     CG2R51     CG2R57
   14    12    13    41	 9 ;       HGP1     NG3C51     CG2R51      HGR52
   11    15    16    44	 9 ;     NG3C51      CG321      CG331       HGA3
   11    15    16    45	 9 ;     NG3C51      CG321      CG331       HGA3
   11    15    16    46	 9 ;     NG3C51      CG321      CG331       HGA3
   42    15    16    44	 9 ;       HGA2      CG321      CG331       HGA3
   42    15    16    45	 9 ;       HGA2      CG321      CG331       HGA3
   42    15    16    46	 9 ;       HGA2      CG321      CG331       HGA3
   43    15    16    44	 9 ;       HGA2      CG321      CG331       HGA3
   43    15    16    45	 9 ;       HGA2      CG321      CG331       HGA3
   43    15    16    46	 9 ;       HGA2      CG321      CG331       HGA3
   23    17    18    19	 9 ;     CG2R61     CG2R61     CG2R61     CG2R61
   23    17    18    47	 9 ;     CG2R61     CG2R61     CG2R61      HGR61
    1    17    18    19	 9 ;     CG3C50     CG2R61     CG2R61     CG2R61
    1    17    18    47	 9 ;     CG3C50     CG2R61     CG2R61      HGR61
   18    17    23    22	 9 ;     CG2R61     CG2R61     CG2R61     CG2R61
   18    17    23    49	 9 ;     CG2R61     CG2R61     CG2R61      HGR61
    1    17    23    22	 9 ;     CG3C50     CG2R61     CG2R61     CG2R61
    1    17    23    49	 9 ;     CG3C50     CG2R61     CG2R61      HGR61
   17    18    19    20	 9 ;     CG2R61     CG2R61     CG2R61     CG2R66
   17    18    19    48	 9 ;     CG2R61     CG2R61     CG2R61      HGR62
   47    18    19    20	 9 ;      HGR61     CG2R61     CG2R61     CG2R66
   47    18    19    48	 9 ;      HGR61     CG2R61     CG2R61      HGR62
   18    19    20    21	 9 ;     CG2R61     CG2R61     CG2R66       FGR1
   18    19    20    22	 9 ;     CG2R61     CG2R61     CG2R66     CG2R61
   48    19    20    21	 9 ;      HGR62     CG2R61     CG2R66       FGR1
   48    19    20    22	 9 ;      HGR62     CG2R61     CG2R66     CG2R61
   21    20    22    24	 9 ;       FGR1     CG2R66     CG2R61     CG2DC1
   21    20    22    23	 9 ;       FGR1     CG2R66     CG2R61     CG2R61
   19    20    22    24	 9 ;     CG2R61     CG2R66     CG2R61     CG2DC1
   19    20    22    23	 9 ;     CG2R61     CG2R66     CG2R61     CG2R61
   20    22    24    29	 9 ;     CG2R66     CG2R61     CG2DC1     CG2D1O
   20    22    24    25	 9 ;     CG2R66     CG2R61     CG2DC1     CG2DC2
   23    22    24    29	 9 ;     CG2R61     CG2R61     CG2DC1     CG2D1O
   23    22    24    25	 9 ;     CG2R61     CG2R61     CG2DC1     CG2DC2
   20    22    23    17	 9 ;     CG2R66     CG2R61     CG2R61     CG2R61
   20    22    23    49	 9 ;     CG2R66     CG2R61     CG2R61      HGR61
   24    22    23    17	 9 ;     CG2DC1     CG2R61     CG2R61     CG2R61
   24    22    23    49	 9 ;     CG2DC1     CG2R61     CG2R61      HGR61
   22    24    29    31	 9 ;     CG2R61     CG2DC1     CG2D1O       FGA1
   22    24    29    28	 9 ;     CG2R61     CG2DC1     CG2D1O      NG311
   25    24    29    31	 9 ;     CG2DC2     CG2DC1     CG2D1O       FGA1
   25    24    29    28	 9 ;     CG2DC2     CG2DC1     CG2D1O      NG311
   29    24    25    26	 9 ;     CG2D1O     CG2DC1     CG2DC2     CG2DC2
   29    24    25    50	 9 ;     CG2D1O     CG2DC1     CG2DC2       HGA4
   22    24    25    26	 9 ;     CG2R61     CG2DC1     CG2DC2     CG2DC2
   22    24    25    50	 9 ;     CG2R61     CG2DC1     CG2DC2       HGA4
   24    25    26    27	 9 ;     CG2DC1     CG2DC2     CG2DC2      CG321
   24    25    26    51	 9 ;     CG2DC1     CG2DC2     CG2DC2       HGA4
   50    25    26    27	 9 ;       HGA4     CG2DC2     CG2DC2      CG321
   50    25    26    51	 9 ;       HGA4     CG2DC2     CG2DC2       HGA4
   25    26    27    28	 9 ;     CG2DC2     CG2DC2      CG321      NG311
   25    26    27    52	 9 ;     CG2DC2     CG2DC2      CG321       HGA2
   25    26    27    55	 9 ;     CG2DC2     CG2DC2      CG321       HGA2
   51    26    27    28	 9 ;       HGA4     CG2DC2      CG321      NG311
   51    26    27    52	 9 ;       HGA4     CG2DC2      CG321       HGA2
   51    26    27    55	 9 ;       HGA4     CG2DC2      CG321       HGA2
   26    27    28    30	 9 ;     CG2DC2      CG321      NG311     HGPAM1
   26    27    28    29	 9 ;     CG2DC2      CG321      NG311     CG2D1O
   52    27    28    30	 9 ;       HGA2      CG321      NG311     HGPAM1
   52    27    28    29	 9 ;       HGA2      CG321      NG311     CG2D1O
   55    27    28    30	 9 ;       HGA2      CG321      NG311     HGPAM1
   55    27    28    29	 9 ;       HGA2      CG321      NG311     CG2D1O
   30    28    29    31	 9 ;     HGPAM1      NG311     CG2D1O       FGA1
   30    28    29    24	 9 ;     HGPAM1      NG311     CG2D1O     CG2DC1
   27    28    29    31	 9 ;      CG321      NG311     CG2D1O       FGA1
   27    28    29    24	 9 ;      CG321      NG311     CG2D1O     CG2DC1

[ dihedrals ]
;	ai	  aj	ak	  al funct			  c0			c1			  c2			c3
    7     1     5     8	 2
   29    24    28    31	 2

