Great Red Owns Many ACres of Sand 
   55
    1LIG     C1    1  -1.535   0.437  -1.573
    1LIG     N1    2  -1.553   0.291  -1.543
    1LIG    HN3    3  -1.598   0.249  -1.462
    1LIG     C2    4  -1.499   0.229  -1.644
    1LIG     N2    5  -1.454   0.306  -1.745
    1LIG     C3    6  -1.378   0.264  -1.860
    1LIG     C4    7  -1.487   0.435  -1.719
    1LIG      O    8  -1.476   0.530  -1.796
    1LIG     C5    9  -1.663   0.511  -1.547
    1LIG     C6   10  -1.684   0.648  -1.550
    1LIG     N3   11  -1.817   0.668  -1.530
    1LIG     N4   12  -1.885   0.555  -1.505
    1LIG     C7   13  -1.792   0.460  -1.516
    1LIG    HN4   14  -1.984   0.544  -1.483
    1LIG     C8   15  -1.888   0.795  -1.538
    1LIG     C9   16  -2.036   0.779  -1.510
    1LIG    C10   17  -1.431   0.500  -1.478
    1LIG    C11   18  -1.326   0.578  -1.530
    1LIG    C12   19  -1.234   0.637  -1.445
    1LIG    C13   20  -1.242   0.617  -1.308
    1LIG     F1   21  -1.148   0.675  -1.232
    1LIG    C14   22  -1.344   0.540  -1.249
    1LIG    C15   23  -1.438   0.483  -1.338
    1LIG    C16   24  -1.352   0.517  -1.102
    1LIG    C17   25  -1.407   0.613  -1.015
    1LIG    C18   26  -1.411   0.591  -0.877
    1LIG    C19   27  -1.362   0.471  -0.829
    1LIG     N5   28  -1.310   0.375  -0.907
    1LIG    C20   29  -1.306   0.400  -1.041
    1LIG    HN5   30  -1.276   0.287  -0.868
    1LIG     F2   31  -1.250   0.304  -1.115
    1LIG     N6   32  -1.490   0.094  -1.647
    1LIG     H1   33  -1.571   0.049  -1.605
    1LIG     H2   34  -1.464   0.052  -1.735
    1LIG    HN2   35  -1.464   0.290  -1.495
    1LIG     HC   36  -1.401   0.235  -1.595
    1LIG    HC1   37  -1.357   0.350  -1.924
    1LIG    HC2   38  -1.283   0.219  -1.827
    1LIG    HC3   39  -1.435   0.190  -1.916
    1LIG    HC4   40  -1.609   0.725  -1.566
    1LIG    HC5   41  -1.812   0.354  -1.504
    1LIG    HC6   42  -1.845   0.863  -1.465
    1LIG    HC7   43  -1.875   0.836  -1.638
    1LIG    HC8   44  -2.085   0.876  -1.516
    1LIG    HC9   45  -2.050   0.737  -1.411
    1LIG   HC10   46  -2.081   0.712  -1.584
    1LIG   HC11   47  -1.318   0.591  -1.637
    1LIG   HC12   48  -1.155   0.698  -1.486
    1LIG   HC13   49  -1.518   0.424  -1.297
    1LIG   HC14   50  -1.446   0.706  -1.055
    1LIG   HC15   51  -1.451   0.666  -0.811
    1LIG   HC16   52  -1.365   0.454  -0.722
    1LIG    HN1   53  -1.414   0.072  -1.584
    1LIG    H25   54  -1.667   0.654  -1.443
    1LIG    H26   55  -1.263   0.516  -0.818
   0.00000   0.00000   0.00000
