GROtesk MACabre and Sinister
   80
    1LIG     N1    1  -1.698   0.618  -1.588
    1LIG     H1    2  -1.791   0.639  -1.627
    1LIG     H2    3  -1.638   0.598  -1.669
    1LIG     C1    4  -1.646   0.753  -1.534
    1LIG     C2    5  -1.586   0.825  -1.660
    1LIG     O1    6  -1.506   0.933  -1.606
    1LIG     H3    7  -1.428   0.897  -1.560
    1LIG     C3    8  -1.512   0.736  -1.764
    1LIG     N2    9  -1.577   0.750  -1.896
    1LIG     C4   10  -1.660   0.651  -1.946
    1LIG     O2   11  -1.708   0.563  -1.876
    1LIG     C5   12  -1.688   0.667  -2.093
    1LIG     H4   13  -1.531   0.807  -1.965
    1LIG     C6   14  -1.361   0.779  -1.780
    1LIG     C7   15  -1.261   0.689  -1.711
    1LIG     C8   16  -1.250   0.688  -1.571
    1LIG     C9   17  -1.149   0.614  -1.509
    1LIG     F1   18  -1.137   0.619  -1.375
    1LIG    C10   19  -1.060   0.538  -1.583
    1LIG    C11   20  -1.075   0.533  -1.720
    1LIG    C12   21  -1.176   0.606  -1.785
    1LIG     F2   22  -0.992   0.459  -1.794
    1LIG    C13   23  -1.700   0.489  -1.505
    1LIG    C14   24  -1.736   0.522  -1.358
    1LIG    C15   25  -1.882   0.557  -1.324
    1LIG    C16   26  -1.993   0.486  -1.403
    1LIG    C17   27  -1.955   0.454  -1.547
    1LIG    C18   28  -1.813   0.402  -1.568
    1LIG     N3   29  -2.053   0.373  -1.333
    1LIG    C19   30  -2.164   0.376  -1.253
    1LIG     O3   31  -2.229   0.478  -1.234
    1LIG    C20   32  -2.202   0.243  -1.196
    1LIG     H5   33  -2.006   0.283  -1.342
    1LIG    C21   34  -1.567   0.413  -1.522
    1LIG    C22   35  -1.485   0.389  -1.409
    1LIG    C23   36  -1.360   0.324  -1.417
    1LIG    C24   37  -1.319   0.281  -1.544
    1LIG    C25   38  -1.396   0.304  -1.657
    1LIG    C26   39  -1.519   0.369  -1.646
    1LIG    C27   40  -1.276   0.297  -1.291
    1LIG    C28   41  -1.133   0.263  -1.338
    1LIG    C29   42  -1.272   0.417  -1.195
    1LIG    C30   43  -1.329   0.177  -1.208
    1LIG    HC2   44  -1.570   0.738  -1.458
    1LIG    HC3   45  -1.729   0.812  -1.493
    1LIG     HC   46  -1.669   0.872  -1.712
    1LIG    HC1   47  -1.516   0.632  -1.733
    1LIG    HC4   48  -1.338   0.781  -1.887
    1LIG    HC5   49  -1.350   0.880  -1.741
    1LIG    HC6   50  -1.319   0.746  -1.511
    1LIG    HC7   51  -0.980   0.483  -1.534
    1LIG    HC8   52  -1.187   0.599  -1.892
    1LIG    HC9   53  -1.675   0.607  -1.328
    1LIG   HC10   54  -1.708   0.436  -1.297
    1LIG   HC11   55  -1.897   0.534  -1.219
    1LIG   HC12   56  -1.894   0.664  -1.337
    1LIG   HC13   57  -2.073   0.559  -1.411
    1LIG   HC14   58  -2.024   0.379  -1.585
    1LIG   HC15   59  -1.967   0.545  -1.607
    1LIG   HC16   60  -1.795   0.394  -1.675
    1LIG   HC17   61  -1.807   0.302  -1.525
    1LIG   HC18   62  -1.520   0.421  -1.312
    1LIG   HC19   63  -1.224   0.229  -1.554
    1LIG   HC20   64  -1.361   0.272  -1.753
    1LIG   HC21   65  -1.578   0.386  -1.735
    1LIG   HC22   66  -1.753   0.587  -2.127
    1LIG   HC23   67  -1.737   0.763  -2.111
    1LIG   HC24   68  -1.594   0.663  -2.149
    1LIG   HC25   69  -1.067   0.258  -1.251
    1LIG   HC26   70  -1.098   0.341  -1.406
    1LIG   HC27   71  -1.133   0.167  -1.389
    1LIG   HC28   72  -2.291   0.253  -1.134
    1LIG   HC29   73  -2.222   0.172  -1.277
    1LIG   HC30   74  -2.119   0.205  -1.135
    1LIG   HC31   75  -1.335   0.089  -1.271
    1LIG   HC32   76  -1.262   0.158  -1.124
    1LIG   HC33   77  -1.429   0.201  -1.170
    1LIG   HC34   78  -1.235   0.505  -1.249
    1LIG   HC35   79  -1.205   0.395  -1.112
    1LIG   HC36   80  -1.372   0.438  -1.157
   0.00000   0.00000   0.00000
