Good gRace! Old Maple Actually Chews Slate
   58
    1LIG     C1    1  -1.365   0.423  -1.590
    1LIG     N1    2  -1.388   0.337  -1.712
    1LIG     HN    3  -1.472   0.284  -1.735
    1LIG     C2    4  -1.279   0.344  -1.782
    1LIG     N2    5  -1.184   0.426  -1.735
    1LIG     C3    6  -1.045   0.428  -1.774
    1LIG     C4    7  -1.231   0.492  -1.625
    1LIG     O1    8  -1.173   0.580  -1.564
    1LIG     C5    9  -1.487   0.513  -1.571
    1LIG     C6   10  -1.592   0.462  -1.491
    1LIG     C7   11  -1.698   0.542  -1.448
    1LIG     C8   12  -1.707   0.673  -1.497
    1LIG     C9   13  -1.607   0.723  -1.581
    1LIG    C10   14  -1.497   0.645  -1.616
    1LIG    C11   15  -1.795   0.489  -1.344
    1LIG    C12   16  -1.941   0.471  -1.396
    1LIG    C13   17  -2.037   0.454  -1.278
    1LIG    C14   18  -1.960   0.356  -1.498
    1LIG    C15   19  -1.972   0.401  -1.643
    1LIG    C16   20  -1.340   0.337  -1.463
    1LIG    C17   21  -1.304   0.397  -1.341
    1LIG    C18   22  -1.283   0.319  -1.226
    1LIG    C19   23  -1.296   0.181  -1.232
    1LIG    C20   24  -1.331   0.120  -1.352
    1LIG    C21   25  -1.353   0.197  -1.467
    1LIG     O2   26  -1.275   0.096  -1.127
    1LIG    C22   27  -1.209  -0.026  -1.158
    1LIG     F1   28  -1.076  -0.001  -1.157
    1LIG     F2   29  -1.233  -0.116  -1.059
    1LIG     N3   30  -1.263   0.273  -1.895
    1LIG     H1   31  -1.236   0.332  -1.974
    1LIG     H2   32  -1.205   0.190  -1.888
    1LIG    HN2   33  -1.425   0.417  -1.762
    1LIG     HC   34  -1.237   0.262  -1.724
    1LIG    HC1   35  -1.591   0.357  -1.464
    1LIG    HC2   36  -1.791   0.735  -1.470
    1LIG    HC3   37  -1.615   0.824  -1.619
    1LIG    HC4   38  -1.419   0.686  -1.678
    1LIG    HC5   39  -1.759   0.391  -1.311
    1LIG    HC6   40  -1.796   0.557  -1.259
    1LIG    HC7   41  -1.968   0.564  -1.446
    1LIG    HC8   42  -1.874   0.290  -1.490
    1LIG    HC9   43  -2.050   0.301  -1.471
    1LIG   HC10   44  -1.293   0.504  -1.336
    1LIG   HC11   45  -1.256   0.368  -1.133
    1LIG   HC12   46  -1.340   0.013  -1.357
    1LIG   HC13   47  -1.381   0.148  -1.559
    1LIG   HC14   48  -1.242  -0.064  -1.255
    1LIG    HN1   49  -1.355   0.238  -1.918
    1LIG   HC15   50  -0.992   0.506  -1.720
    1LIG   HC16   51  -1.000   0.331  -1.751
    1LIG   HC17   52  -1.037   0.447  -1.881
    1LIG   HC18   53  -2.023   0.535  -1.207
    1LIG   HC19   54  -2.140   0.455  -1.314
    1LIG   HC20   55  -2.017   0.359  -1.229
    1LIG   HC21   56  -1.986   0.314  -1.707
    1LIG   HC22   57  -1.882   0.455  -1.672
    1LIG   HC23   58  -2.058   0.468  -1.653
   0.00000   0.00000   0.00000
