; Created by cgenff_charmm2gmx.py

[ moleculetype ]
; Name			   nrexcl
LIG				 3

[ atoms ]
;	 nr		  type	resnr residue  atom   cgnr	   charge		mass  typeB    chargeB		massB
; residue	 1 LIG rtp LIG q	qsum
     1     CG3C50      1    LIG     C1      1      1.599     12.011   ;
     2      NG3P2      1    LIG     N1      2     -0.701     14.007   ;
     3       HGP2      1    LIG     HN      3      0.353      1.008   ;
     4     CG3C53      1    LIG     C2      4      0.784     12.011   ;
     5     NG2R53      1    LIG     N2      5     -0.171     14.007   ;
     6      CG331      1    LIG     C3      6     -0.169     12.011   ;
     7     CG2R53      1    LIG     C4      7     -0.361     12.011   ;
     8      OG2D1      1    LIG     O1      8     -0.342     15.999   ;
     9     CG2R61      1    LIG     C5      9     -0.150     12.011   ;
    10     CG2R61      1    LIG     C6     10     -0.138     12.011   ;
    11     CG2R61      1    LIG     C7     11     -0.029     12.011   ;
    12     CG2R61      1    LIG     C8     12     -0.123     12.011   ;
    13     CG2R61      1    LIG     C9     13     -0.101     12.011   ;
    14     CG2R61      1    LIG    C10     14     -0.131     12.011   ;
    15      CG321      1    LIG    C11     15     -0.164     12.011   ;
    16      CG311      1    LIG    C12     16     -0.079     12.011   ;
    17      CG331      1    LIG    C13     17     -0.244     12.011   ;
    18      CG321      1    LIG    C14     18     -0.190     12.011   ;
    19      CG331      1    LIG    C15     19     -0.267     12.011   ;
    20     CG2R61      1    LIG    C16     20     -0.154     12.011   ;
    21     CG2R61      1    LIG    C17     21     -0.128     12.011   ;
    22     CG2R61      1    LIG    C18     22     -0.108     12.011   ;
    23     CG2R61      1    LIG    C19     23      0.217     12.011   ;
    24     CG2R61      1    LIG    C20     24     -0.108     12.011   ;
    25     CG2R61      1    LIG    C21     25     -0.128     12.011   ;
    26      OG301      1    LIG     O2     26     -0.272     15.999   ;
    27      CG312      1    LIG    C22     27      0.216     12.011   ;
    28       FGA2      1    LIG     F1     28     -0.160     18.998   ;
    29       FGA2      1    LIG     F2     29     -0.160     18.998   ;
    30      NG3P3      1    LIG     N3     30     -0.267     14.007   ;
    31       HGP2      1    LIG     H1     31      0.301      1.008   ;
    32       HGP2      1    LIG     H2     32      0.301      1.008   ;
    33       HGP2      1    LIG    HN2     33      0.353      1.008   ;
    34       HGA1      1    LIG     HC     34      0.073      1.008   ;
    35      HGR61      1    LIG    HC1     35      0.116      1.008   ;
    36      HGR61      1    LIG    HC2     36      0.116      1.008   ;
    37      HGR61      1    LIG    HC3     37      0.116      1.008   ;
    38      HGR61      1    LIG    HC4     38      0.116      1.008   ;
    39       HGA2      1    LIG    HC5     39      0.090      1.008   ;
    40       HGA2      1    LIG    HC6     40      0.090      1.008   ;
    41       HGA1      1    LIG    HC7     41      0.090      1.008   ;
    42       HGA2      1    LIG    HC8     42      0.090      1.008   ;
    43       HGA2      1    LIG    HC9     43      0.090      1.008   ;
    44      HGR61      1    LIG   HC10     44      0.116      1.008   ;
    45      HGR61      1    LIG   HC11     45      0.116      1.008   ;
    46      HGR61      1    LIG   HC12     46      0.116      1.008   ;
    47      HGR61      1    LIG   HC13     47      0.116      1.008   ;
    48       HGA7      1    LIG   HC14     48      0.159      1.008   ;
    49       HGP2      1    LIG    HN1     49      0.301      1.008   ;
    50       HGA3      1    LIG   HC15     50      0.090      1.008   ;
    51       HGA3      1    LIG   HC16     51      0.090      1.008   ;
    52       HGA3      1    LIG   HC17     52      0.090      1.008   ;
    53       HGA3      1    LIG   HC18     53      0.090      1.008   ;
    54       HGA3      1    LIG   HC19     54      0.090      1.008   ;
    55       HGA3      1    LIG   HC20     55      0.090      1.008   ;
    56       HGA3      1    LIG   HC21     56      0.090      1.008   ;
    57       HGA3      1    LIG   HC22     57      0.090      1.008   ;
    58       HGA3      1    LIG   HC23     58      0.090      1.008   ;

[ bonds ]
;	ai	  aj funct			  c0			c1			  c2			c3
    1     7	 1 ;      CG3C50     CG2R53
    1     2	 1 ;      CG3C50      NG3P2
    1    20	 1 ;      CG3C50     CG2R61
    1     9	 1 ;      CG3C50     CG2R61
    2     4	 1 ;       NG3P2     CG3C53
    2     3	 1 ;       NG3P2       HGP2
    2    33	 1 ;       NG3P2       HGP2
    4    30	 1 ;      CG3C53      NG3P3
    4     5	 1 ;      CG3C53     NG2R53
    4    34	 1 ;      CG3C53       HGA1
    5     6	 1 ;      NG2R53      CG331
    5     7	 1 ;      NG2R53     CG2R53
    6    50	 1 ;       CG331       HGA3
    6    51	 1 ;       CG331       HGA3
    6    52	 1 ;       CG331       HGA3
    7     8	 1 ;      CG2R53      OG2D1
    9    14	 1 ;      CG2R61     CG2R61
    9    10	 1 ;      CG2R61     CG2R61
   10    11	 1 ;      CG2R61     CG2R61
   10    35	 1 ;      CG2R61      HGR61
   11    12	 1 ;      CG2R61     CG2R61
   11    15	 1 ;      CG2R61      CG321
   12    13	 1 ;      CG2R61     CG2R61
   12    36	 1 ;      CG2R61      HGR61
   13    14	 1 ;      CG2R61     CG2R61
   13    37	 1 ;      CG2R61      HGR61
   14    38	 1 ;      CG2R61      HGR61
   15    16	 1 ;       CG321      CG311
   15    39	 1 ;       CG321       HGA2
   15    40	 1 ;       CG321       HGA2
   16    18	 1 ;       CG311      CG321
   16    17	 1 ;       CG311      CG331
   16    41	 1 ;       CG311       HGA1
   17    53	 1 ;       CG331       HGA3
   17    54	 1 ;       CG331       HGA3
   17    55	 1 ;       CG331       HGA3
   18    19	 1 ;       CG321      CG331
   18    42	 1 ;       CG321       HGA2
   18    43	 1 ;       CG321       HGA2
   19    56	 1 ;       CG331       HGA3
   19    57	 1 ;       CG331       HGA3
   19    58	 1 ;       CG331       HGA3
   20    25	 1 ;      CG2R61     CG2R61
   20    21	 1 ;      CG2R61     CG2R61
   21    22	 1 ;      CG2R61     CG2R61
   21    44	 1 ;      CG2R61      HGR61
   22    23	 1 ;      CG2R61     CG2R61
   22    45	 1 ;      CG2R61      HGR61
   23    24	 1 ;      CG2R61     CG2R61
   23    26	 1 ;      CG2R61      OG301
   24    25	 1 ;      CG2R61     CG2R61
   24    46	 1 ;      CG2R61      HGR61
   25    47	 1 ;      CG2R61      HGR61
   26    27	 1 ;       OG301      CG312
   27    28	 1 ;       CG312       FGA2
   27    29	 1 ;       CG312       FGA2
   27    48	 1 ;       CG312       HGA7
   30    31	 1 ;       NG3P3       HGP2
   30    32	 1 ;       NG3P3       HGP2
   30    49	 1 ;       NG3P3       HGP2

[ pairs ]
;	ai	  aj funct			  c0			c1			  c2			c3
    1    30	 1
    1    34	 1
    1     6	 1
    1    13	 1
    1    38	 1
    1    11	 1
    1    35	 1
    1    24	 1
    1    47	 1
    1    22	 1
    1    44	 1
    2     8	 1
    2    25	 1
    2    21	 1
    2    14	 1
    2    10	 1
    2    31	 1
    2    32	 1
    2    49	 1
    2     6	 1
    3     7	 1
    3    20	 1
    3     9	 1
    3    30	 1
    3     5	 1
    3    34	 1
    4    20	 1
    4     9	 1
    4    50	 1
    4    51	 1
    4    52	 1
    4     8	 1
    5    20	 1
    5     9	 1
    5    33	 1
    5    31	 1
    5    32	 1
    5    49	 1
    6    30	 1
    6    34	 1
    6     8	 1
    7    33	 1
    7    25	 1
    7    21	 1
    7    14	 1
    7    10	 1
    7    30	 1
    7    34	 1
    7    50	 1
    7    51	 1
    7    52	 1
    8    20	 1
    8     9	 1
    9    33	 1
    9    25	 1
    9    21	 1
    9    12	 1
    9    15	 1
    9    37	 1
   10    20	 1
   10    13	 1
   10    38	 1
   10    36	 1
   10    16	 1
   10    39	 1
   10    40	 1
   11    14	 1
   11    37	 1
   11    18	 1
   11    17	 1
   11    41	 1
   12    35	 1
   12    16	 1
   12    39	 1
   12    40	 1
   12    38	 1
   13    15	 1
   14    20	 1
   14    35	 1
   14    36	 1
   15    35	 1
   15    36	 1
   15    19	 1
   15    42	 1
   15    43	 1
   15    53	 1
   15    54	 1
   15    55	 1
   16    56	 1
   16    57	 1
   16    58	 1
   17    39	 1
   17    40	 1
   17    19	 1
   17    42	 1
   17    43	 1
   18    39	 1
   18    40	 1
   18    53	 1
   18    54	 1
   18    55	 1
   19    41	 1
   20    33	 1
   20    23	 1
   20    45	 1
   20    46	 1
   21    24	 1
   21    47	 1
   21    26	 1
   22    25	 1
   22    46	 1
   22    27	 1
   23    44	 1
   23    47	 1
   23    28	 1
   23    29	 1
   23    48	 1
   24    45	 1
   24    27	 1
   25    44	 1
   25    26	 1
   26    45	 1
   26    46	 1
   30    33	 1
   31    34	 1
   32    34	 1
   33    34	 1
   34    49	 1
   36    37	 1
   37    38	 1
   39    41	 1
   40    41	 1
   41    42	 1
   41    43	 1
   41    53	 1
   41    54	 1
   41    55	 1
   42    56	 1
   42    57	 1
   42    58	 1
   43    56	 1
   43    57	 1
   43    58	 1
   44    45	 1
   46    47	 1

[ angles ]
;	ai	  aj	ak funct			c0			  c1			c2			  c3
    7     1     2	5 ;     CG2R53     CG3C50      NG3P2
    7     1    20	5 ;     CG2R53     CG3C50     CG2R61
    7     1     9	5 ;     CG2R53     CG3C50     CG2R61
    2     1    20	5 ;      NG3P2     CG3C50     CG2R61
    2     1     9	5 ;      NG3P2     CG3C50     CG2R61
   20     1     9	5 ;     CG2R61     CG3C50     CG2R61
    4     2     3	5 ;     CG3C53      NG3P2       HGP2
    4     2     1	5 ;     CG3C53      NG3P2     CG3C50
    4     2    33	5 ;     CG3C53      NG3P2       HGP2
    3     2     1	5 ;       HGP2      NG3P2     CG3C50
    3     2    33	5 ;       HGP2      NG3P2       HGP2
    1     2    33	5 ;     CG3C50      NG3P2       HGP2
   30     4     5	5 ;      NG3P3     CG3C53     NG2R53
   30     4     2	5 ;      NG3P3     CG3C53      NG3P2
   30     4    34	5 ;      NG3P3     CG3C53       HGA1
    5     4     2	5 ;     NG2R53     CG3C53      NG3P2
    5     4    34	5 ;     NG2R53     CG3C53       HGA1
    2     4    34	5 ;      NG3P2     CG3C53       HGA1
    6     5     4	5 ;      CG331     NG2R53     CG3C53
    6     5     7	5 ;      CG331     NG2R53     CG2R53
    4     5     7	5 ;     CG3C53     NG2R53     CG2R53
    5     6    50	5 ;     NG2R53      CG331       HGA3
    5     6    51	5 ;     NG2R53      CG331       HGA3
    5     6    52	5 ;     NG2R53      CG331       HGA3
   50     6    51	5 ;       HGA3      CG331       HGA3
   50     6    52	5 ;       HGA3      CG331       HGA3
   51     6    52	5 ;       HGA3      CG331       HGA3
    5     7     8	5 ;     NG2R53     CG2R53      OG2D1
    5     7     1	5 ;     NG2R53     CG2R53     CG3C50
    8     7     1	5 ;      OG2D1     CG2R53     CG3C50
    1     9    14	5 ;     CG3C50     CG2R61     CG2R61
    1     9    10	5 ;     CG3C50     CG2R61     CG2R61
   14     9    10	5 ;     CG2R61     CG2R61     CG2R61
    9    10    11	5 ;     CG2R61     CG2R61     CG2R61
    9    10    35	5 ;     CG2R61     CG2R61      HGR61
   11    10    35	5 ;     CG2R61     CG2R61      HGR61
   10    11    12	5 ;     CG2R61     CG2R61     CG2R61
   10    11    15	5 ;     CG2R61     CG2R61      CG321
   12    11    15	5 ;     CG2R61     CG2R61      CG321
   13    12    11	5 ;     CG2R61     CG2R61     CG2R61
   13    12    36	5 ;     CG2R61     CG2R61      HGR61
   11    12    36	5 ;     CG2R61     CG2R61      HGR61
   14    13    12	5 ;     CG2R61     CG2R61     CG2R61
   14    13    37	5 ;     CG2R61     CG2R61      HGR61
   12    13    37	5 ;     CG2R61     CG2R61      HGR61
    9    14    13	5 ;     CG2R61     CG2R61     CG2R61
    9    14    38	5 ;     CG2R61     CG2R61      HGR61
   13    14    38	5 ;     CG2R61     CG2R61      HGR61
   11    15    16	5 ;     CG2R61      CG321      CG311
   11    15    39	5 ;     CG2R61      CG321       HGA2
   11    15    40	5 ;     CG2R61      CG321       HGA2
   16    15    39	5 ;      CG311      CG321       HGA2
   16    15    40	5 ;      CG311      CG321       HGA2
   39    15    40	5 ;       HGA2      CG321       HGA2
   15    16    18	5 ;      CG321      CG311      CG321
   15    16    17	5 ;      CG321      CG311      CG331
   15    16    41	5 ;      CG321      CG311       HGA1
   18    16    17	5 ;      CG321      CG311      CG331
   18    16    41	5 ;      CG321      CG311       HGA1
   17    16    41	5 ;      CG331      CG311       HGA1
   16    17    53	5 ;      CG311      CG331       HGA3
   16    17    54	5 ;      CG311      CG331       HGA3
   16    17    55	5 ;      CG311      CG331       HGA3
   53    17    54	5 ;       HGA3      CG331       HGA3
   53    17    55	5 ;       HGA3      CG331       HGA3
   54    17    55	5 ;       HGA3      CG331       HGA3
   19    18    16	5 ;      CG331      CG321      CG311
   19    18    42	5 ;      CG331      CG321       HGA2
   19    18    43	5 ;      CG331      CG321       HGA2
   16    18    42	5 ;      CG311      CG321       HGA2
   16    18    43	5 ;      CG311      CG321       HGA2
   42    18    43	5 ;       HGA2      CG321       HGA2
   18    19    56	5 ;      CG321      CG331       HGA3
   18    19    57	5 ;      CG321      CG331       HGA3
   18    19    58	5 ;      CG321      CG331       HGA3
   56    19    57	5 ;       HGA3      CG331       HGA3
   56    19    58	5 ;       HGA3      CG331       HGA3
   57    19    58	5 ;       HGA3      CG331       HGA3
    1    20    25	5 ;     CG3C50     CG2R61     CG2R61
    1    20    21	5 ;     CG3C50     CG2R61     CG2R61
   25    20    21	5 ;     CG2R61     CG2R61     CG2R61
   20    21    22	5 ;     CG2R61     CG2R61     CG2R61
   20    21    44	5 ;     CG2R61     CG2R61      HGR61
   22    21    44	5 ;     CG2R61     CG2R61      HGR61
   21    22    23	5 ;     CG2R61     CG2R61     CG2R61
   21    22    45	5 ;     CG2R61     CG2R61      HGR61
   23    22    45	5 ;     CG2R61     CG2R61      HGR61
   24    23    22	5 ;     CG2R61     CG2R61     CG2R61
   24    23    26	5 ;     CG2R61     CG2R61      OG301
   22    23    26	5 ;     CG2R61     CG2R61      OG301
   25    24    23	5 ;     CG2R61     CG2R61     CG2R61
   25    24    46	5 ;     CG2R61     CG2R61      HGR61
   23    24    46	5 ;     CG2R61     CG2R61      HGR61
   20    25    24	5 ;     CG2R61     CG2R61     CG2R61
   20    25    47	5 ;     CG2R61     CG2R61      HGR61
   24    25    47	5 ;     CG2R61     CG2R61      HGR61
   27    26    23	5 ;      CG312      OG301     CG2R61
   28    27    29	5 ;       FGA2      CG312       FGA2
   28    27    26	5 ;       FGA2      CG312      OG301
   28    27    48	5 ;       FGA2      CG312       HGA7
   29    27    26	5 ;       FGA2      CG312      OG301
   29    27    48	5 ;       FGA2      CG312       HGA7
   26    27    48	5 ;      OG301      CG312       HGA7
   31    30    32	5 ;       HGP2      NG3P3       HGP2
   31    30     4	5 ;       HGP2      NG3P3     CG3C53
   31    30    49	5 ;       HGP2      NG3P3       HGP2
   32    30     4	5 ;       HGP2      NG3P3     CG3C53
   32    30    49	5 ;       HGP2      NG3P3       HGP2
    4    30    49	5 ;     CG3C53      NG3P3       HGP2

[ dihedrals ]
;	ai	  aj	ak	  al funct			  c0			c1			  c2			c3			  c4			c5
    2     1     7     5	 9 ;      NG3P2     CG3C50     CG2R53     NG2R53
    2     1     7     8	 9 ;      NG3P2     CG3C50     CG2R53      OG2D1
   20     1     7     5	 9 ;     CG2R61     CG3C50     CG2R53     NG2R53
   20     1     7     8	 9 ;     CG2R61     CG3C50     CG2R53      OG2D1
    9     1     7     5	 9 ;     CG2R61     CG3C50     CG2R53     NG2R53
    9     1     7     8	 9 ;     CG2R61     CG3C50     CG2R53      OG2D1
    7     1     2     4	 9 ;     CG2R53     CG3C50      NG3P2     CG3C53
    7     1     2     3	 9 ;     CG2R53     CG3C50      NG3P2       HGP2
    7     1     2    33	 9 ;     CG2R53     CG3C50      NG3P2       HGP2
   20     1     2     4	 9 ;     CG2R61     CG3C50      NG3P2     CG3C53
   20     1     2     3	 9 ;     CG2R61     CG3C50      NG3P2       HGP2
   20     1     2    33	 9 ;     CG2R61     CG3C50      NG3P2       HGP2
    9     1     2     4	 9 ;     CG2R61     CG3C50      NG3P2     CG3C53
    9     1     2     3	 9 ;     CG2R61     CG3C50      NG3P2       HGP2
    9     1     2    33	 9 ;     CG2R61     CG3C50      NG3P2       HGP2
    7     1    20    25	 9 ;     CG2R53     CG3C50     CG2R61     CG2R61
    7     1    20    21	 9 ;     CG2R53     CG3C50     CG2R61     CG2R61
    2     1    20    25	 9 ;      NG3P2     CG3C50     CG2R61     CG2R61
    2     1    20    21	 9 ;      NG3P2     CG3C50     CG2R61     CG2R61
    9     1    20    25	 9 ;     CG2R61     CG3C50     CG2R61     CG2R61
    9     1    20    21	 9 ;     CG2R61     CG3C50     CG2R61     CG2R61
    7     1     9    14	 9 ;     CG2R53     CG3C50     CG2R61     CG2R61
    7     1     9    10	 9 ;     CG2R53     CG3C50     CG2R61     CG2R61
    2     1     9    14	 9 ;      NG3P2     CG3C50     CG2R61     CG2R61
    2     1     9    10	 9 ;      NG3P2     CG3C50     CG2R61     CG2R61
   20     1     9    14	 9 ;     CG2R61     CG3C50     CG2R61     CG2R61
   20     1     9    10	 9 ;     CG2R61     CG3C50     CG2R61     CG2R61
    3     2     4    30	 9 ;       HGP2      NG3P2     CG3C53      NG3P3
    3     2     4     5	 9 ;       HGP2      NG3P2     CG3C53     NG2R53
    3     2     4    34	 9 ;       HGP2      NG3P2     CG3C53       HGA1
    1     2     4    30	 9 ;     CG3C50      NG3P2     CG3C53      NG3P3
    1     2     4     5	 9 ;     CG3C50      NG3P2     CG3C53     NG2R53
    1     2     4    34	 9 ;     CG3C50      NG3P2     CG3C53       HGA1
   33     2     4    30	 9 ;       HGP2      NG3P2     CG3C53      NG3P3
   33     2     4     5	 9 ;       HGP2      NG3P2     CG3C53     NG2R53
   33     2     4    34	 9 ;       HGP2      NG3P2     CG3C53       HGA1
    5     4    30    31	 9 ;     NG2R53     CG3C53      NG3P3       HGP2
    5     4    30    32	 9 ;     NG2R53     CG3C53      NG3P3       HGP2
    5     4    30    49	 9 ;     NG2R53     CG3C53      NG3P3       HGP2
    2     4    30    31	 9 ;      NG3P2     CG3C53      NG3P3       HGP2
    2     4    30    32	 9 ;      NG3P2     CG3C53      NG3P3       HGP2
    2     4    30    49	 9 ;      NG3P2     CG3C53      NG3P3       HGP2
   34     4    30    31	 9 ;       HGA1     CG3C53      NG3P3       HGP2
   34     4    30    32	 9 ;       HGA1     CG3C53      NG3P3       HGP2
   34     4    30    49	 9 ;       HGA1     CG3C53      NG3P3       HGP2
   30     4     5     6	 9 ;      NG3P3     CG3C53     NG2R53      CG331
   30     4     5     7	 9 ;      NG3P3     CG3C53     NG2R53     CG2R53
    2     4     5     6	 9 ;      NG3P2     CG3C53     NG2R53      CG331
    2     4     5     7	 9 ;      NG3P2     CG3C53     NG2R53     CG2R53
   34     4     5     6	 9 ;       HGA1     CG3C53     NG2R53      CG331
   34     4     5     7	 9 ;       HGA1     CG3C53     NG2R53     CG2R53
    4     5     6    50	 9 ;     CG3C53     NG2R53      CG331       HGA3
    4     5     6    51	 9 ;     CG3C53     NG2R53      CG331       HGA3
    4     5     6    52	 9 ;     CG3C53     NG2R53      CG331       HGA3
    7     5     6    50	 9 ;     CG2R53     NG2R53      CG331       HGA3
    7     5     6    51	 9 ;     CG2R53     NG2R53      CG331       HGA3
    7     5     6    52	 9 ;     CG2R53     NG2R53      CG331       HGA3
    6     5     7     8	 9 ;      CG331     NG2R53     CG2R53      OG2D1
    6     5     7     1	 9 ;      CG331     NG2R53     CG2R53     CG3C50
    4     5     7     8	 9 ;     CG3C53     NG2R53     CG2R53      OG2D1
    4     5     7     1	 9 ;     CG3C53     NG2R53     CG2R53     CG3C50
    1     9    14    13	 9 ;     CG3C50     CG2R61     CG2R61     CG2R61
    1     9    14    38	 9 ;     CG3C50     CG2R61     CG2R61      HGR61
   10     9    14    13	 9 ;     CG2R61     CG2R61     CG2R61     CG2R61
   10     9    14    38	 9 ;     CG2R61     CG2R61     CG2R61      HGR61
    1     9    10    11	 9 ;     CG3C50     CG2R61     CG2R61     CG2R61
    1     9    10    35	 9 ;     CG3C50     CG2R61     CG2R61      HGR61
   14     9    10    11	 9 ;     CG2R61     CG2R61     CG2R61     CG2R61
   14     9    10    35	 9 ;     CG2R61     CG2R61     CG2R61      HGR61
    9    10    11    12	 9 ;     CG2R61     CG2R61     CG2R61     CG2R61
    9    10    11    15	 9 ;     CG2R61     CG2R61     CG2R61      CG321
   35    10    11    12	 9 ;      HGR61     CG2R61     CG2R61     CG2R61
   35    10    11    15	 9 ;      HGR61     CG2R61     CG2R61      CG321
   10    11    12    13	 9 ;     CG2R61     CG2R61     CG2R61     CG2R61
   10    11    12    36	 9 ;     CG2R61     CG2R61     CG2R61      HGR61
   15    11    12    13	 9 ;      CG321     CG2R61     CG2R61     CG2R61
   15    11    12    36	 9 ;      CG321     CG2R61     CG2R61      HGR61
   10    11    15    16	 9 ;     CG2R61     CG2R61      CG321      CG311
   10    11    15    39	 9 ;     CG2R61     CG2R61      CG321       HGA2
   10    11    15    40	 9 ;     CG2R61     CG2R61      CG321       HGA2
   12    11    15    16	 9 ;     CG2R61     CG2R61      CG321      CG311
   12    11    15    39	 9 ;     CG2R61     CG2R61      CG321       HGA2
   12    11    15    40	 9 ;     CG2R61     CG2R61      CG321       HGA2
   11    12    13    14	 9 ;     CG2R61     CG2R61     CG2R61     CG2R61
   11    12    13    37	 9 ;     CG2R61     CG2R61     CG2R61      HGR61
   36    12    13    14	 9 ;      HGR61     CG2R61     CG2R61     CG2R61
   36    12    13    37	 9 ;      HGR61     CG2R61     CG2R61      HGR61
   12    13    14     9	 9 ;     CG2R61     CG2R61     CG2R61     CG2R61
   12    13    14    38	 9 ;     CG2R61     CG2R61     CG2R61      HGR61
   37    13    14     9	 9 ;      HGR61     CG2R61     CG2R61     CG2R61
   37    13    14    38	 9 ;      HGR61     CG2R61     CG2R61      HGR61
   11    15    16    18	 9 ;     CG2R61      CG321      CG311      CG321
   11    15    16    17	 9 ;     CG2R61      CG321      CG311      CG331
   11    15    16    41	 9 ;     CG2R61      CG321      CG311       HGA1
   39    15    16    18	 9 ;       HGA2      CG321      CG311      CG321
   39    15    16    17	 9 ;       HGA2      CG321      CG311      CG331
   39    15    16    41	 9 ;       HGA2      CG321      CG311       HGA1
   40    15    16    18	 9 ;       HGA2      CG321      CG311      CG321
   40    15    16    17	 9 ;       HGA2      CG321      CG311      CG331
   40    15    16    41	 9 ;       HGA2      CG321      CG311       HGA1
   15    16    18    19	 9 ;      CG321      CG311      CG321      CG331
   15    16    18    42	 9 ;      CG321      CG311      CG321       HGA2
   15    16    18    43	 9 ;      CG321      CG311      CG321       HGA2
   17    16    18    19	 9 ;      CG331      CG311      CG321      CG331
   17    16    18    42	 9 ;      CG331      CG311      CG321       HGA2
   17    16    18    43	 9 ;      CG331      CG311      CG321       HGA2
   41    16    18    19	 9 ;       HGA1      CG311      CG321      CG331
   41    16    18    42	 9 ;       HGA1      CG311      CG321       HGA2
   41    16    18    43	 9 ;       HGA1      CG311      CG321       HGA2
   15    16    17    53	 9 ;      CG321      CG311      CG331       HGA3
   15    16    17    54	 9 ;      CG321      CG311      CG331       HGA3
   15    16    17    55	 9 ;      CG321      CG311      CG331       HGA3
   18    16    17    53	 9 ;      CG321      CG311      CG331       HGA3
   18    16    17    54	 9 ;      CG321      CG311      CG331       HGA3
   18    16    17    55	 9 ;      CG321      CG311      CG331       HGA3
   41    16    17    53	 9 ;       HGA1      CG311      CG331       HGA3
   41    16    17    54	 9 ;       HGA1      CG311      CG331       HGA3
   41    16    17    55	 9 ;       HGA1      CG311      CG331       HGA3
   16    18    19    56	 9 ;      CG311      CG321      CG331       HGA3
   16    18    19    57	 9 ;      CG311      CG321      CG331       HGA3
   16    18    19    58	 9 ;      CG311      CG321      CG331       HGA3
   42    18    19    56	 9 ;       HGA2      CG321      CG331       HGA3
   42    18    19    57	 9 ;       HGA2      CG321      CG331       HGA3
   42    18    19    58	 9 ;       HGA2      CG321      CG331       HGA3
   43    18    19    56	 9 ;       HGA2      CG321      CG331       HGA3
   43    18    19    57	 9 ;       HGA2      CG321      CG331       HGA3
   43    18    19    58	 9 ;       HGA2      CG321      CG331       HGA3
    1    20    25    24	 9 ;     CG3C50     CG2R61     CG2R61     CG2R61
    1    20    25    47	 9 ;     CG3C50     CG2R61     CG2R61      HGR61
   21    20    25    24	 9 ;     CG2R61     CG2R61     CG2R61     CG2R61
   21    20    25    47	 9 ;     CG2R61     CG2R61     CG2R61      HGR61
    1    20    21    22	 9 ;     CG3C50     CG2R61     CG2R61     CG2R61
    1    20    21    44	 9 ;     CG3C50     CG2R61     CG2R61      HGR61
   25    20    21    22	 9 ;     CG2R61     CG2R61     CG2R61     CG2R61
   25    20    21    44	 9 ;     CG2R61     CG2R61     CG2R61      HGR61
   20    21    22    23	 9 ;     CG2R61     CG2R61     CG2R61     CG2R61
   20    21    22    45	 9 ;     CG2R61     CG2R61     CG2R61      HGR61
   44    21    22    23	 9 ;      HGR61     CG2R61     CG2R61     CG2R61
   44    21    22    45	 9 ;      HGR61     CG2R61     CG2R61      HGR61
   21    22    23    24	 9 ;     CG2R61     CG2R61     CG2R61     CG2R61
   21    22    23    26	 9 ;     CG2R61     CG2R61     CG2R61      OG301
   45    22    23    24	 9 ;      HGR61     CG2R61     CG2R61     CG2R61
   45    22    23    26	 9 ;      HGR61     CG2R61     CG2R61      OG301
   22    23    24    25	 9 ;     CG2R61     CG2R61     CG2R61     CG2R61
   22    23    24    46	 9 ;     CG2R61     CG2R61     CG2R61      HGR61
   26    23    24    25	 9 ;      OG301     CG2R61     CG2R61     CG2R61
   26    23    24    46	 9 ;      OG301     CG2R61     CG2R61      HGR61
   24    23    26    27	 9 ;     CG2R61     CG2R61      OG301      CG312
   22    23    26    27	 9 ;     CG2R61     CG2R61      OG301      CG312
   23    24    25    20	 9 ;     CG2R61     CG2R61     CG2R61     CG2R61
   23    24    25    47	 9 ;     CG2R61     CG2R61     CG2R61      HGR61
   46    24    25    20	 9 ;      HGR61     CG2R61     CG2R61     CG2R61
   46    24    25    47	 9 ;      HGR61     CG2R61     CG2R61      HGR61
   23    26    27    28	 9 ;     CG2R61      OG301      CG312       FGA2
   23    26    27    29	 9 ;     CG2R61      OG301      CG312       FGA2
   23    26    27    48	 9 ;     CG2R61      OG301      CG312       HGA7

[ dihedrals ]
;	ai	  aj	ak	  al funct			  c0			c1			  c2			c3
    7     1     5     8	 2

