GROup of MAchos and Cynical Suckers
   57
    1LIG     CA    1  -1.594   0.347  -1.655
    1LIG     N1    2  -1.510   0.305  -1.541
    1LIG      H    3  -1.574   0.285  -1.462
    1LIG     C1    4  -1.381   0.342  -1.516
    1LIG     N2    5  -1.344   0.467  -1.513
    1LIG     C2    6  -1.201   0.497  -1.493
    1LIG    HN1    7  -1.413   0.541  -1.525
    1LIG     C3    8  -1.142   0.405  -1.384
    1LIG     C4    9  -1.189   0.643  -1.446
    1LIG     C5   10  -1.128   0.484  -1.628
    1LIG     C6   11  -1.164   0.262  -1.423
    1LIG     C7   12  -1.071   0.162  -1.393
    1LIG     C8   13  -1.282   0.231  -1.492
    1LIG     C9   14  -1.093   0.032  -1.440
    1LIG     CL   15  -0.977  -0.090  -1.407
    1LIG    C10   16  -1.207   0.002  -1.515
    1LIG    C11   17  -1.303   0.101  -1.540
    1LIG    C12   18  -1.706   0.248  -1.689
    1LIG    C13   19  -1.830   0.298  -1.761
    1LIG    C14   20  -1.834   0.344  -1.891
    1LIG      S   21  -1.988   0.402  -1.940
    1LIG    C15   22  -2.055   0.361  -1.789
    1LIG    C16   23  -1.963   0.304  -1.703
    1LIG    C17   24  -1.999   0.253  -1.570
    1LIG    C18   25  -2.075   0.143  -1.537
    1LIG     N3   26  -2.092   0.148  -1.401
    1LIG     N4   27  -2.028   0.252  -1.343
    1LIG    C19   28  -2.176   0.062  -1.322
    1LIG    C20   29  -1.972   0.316  -1.447
    1LIG    HN2   30  -2.024   0.276  -1.244
    1LIG    C21   31  -1.653   0.489  -1.627
    1LIG      O   32  -1.712   0.499  -1.514
    1LIG    OXT   33  -1.634   0.577  -1.715
    1LIG     HC   34  -1.529   0.355  -1.742
    1LIG    HC2   35  -1.035   0.424  -1.375
    1LIG    HC3   36  -1.190   0.425  -1.289
    1LIG    HC1   37  -1.240   0.655  -1.351
    1LIG    HC4   38  -1.084   0.668  -1.435
    1LIG    HC5   39  -1.235   0.708  -1.520
    1LIG    HC6   40  -1.135   0.382  -1.664
    1LIG    HC7   41  -1.174   0.551  -1.701
    1LIG    HC8   42  -1.023   0.512  -1.616
    1LIG    HC9   43  -0.983   0.184  -1.335
    1LIG   HC10   44  -1.222  -0.098  -1.553
    1LIG   HC11   45  -1.392   0.077  -1.596
    1LIG   HC12   46  -1.739   0.204  -1.595
    1LIG   HC13   47  -1.662   0.168  -1.749
    1LIG   HC14   48  -1.748   0.345  -1.957
    1LIG   HC15   49  -2.159   0.377  -1.763
    1LIG   HC16   50  -2.113   0.068  -1.604
    1LIG   HC17   51  -2.168   0.090  -1.217
    1LIG   HC18   52  -2.143  -0.041  -1.335
    1LIG   HC19   53  -2.279   0.072  -1.356
    1LIG   HC20   54  -1.913   0.406  -1.437
    1LIG    H25   55  -1.359   0.338  -1.623
    1LIG    H26   56  -2.166   0.202  -1.550
    1LIG    LP1   57  -0.866  -0.207  -1.376
   0.00000   0.00000   0.00000
