; Created by cgenff_charmm2gmx.py

[ moleculetype ]
; Name			   nrexcl
LIG				 3

[ atoms ]
;	 nr		  type	resnr residue  atom   cgnr	   charge		mass  typeB    chargeB		massB
; residue	 1 LIG rtp LIG q	qsum
     1      CG311      1    LIG     CA      1     -0.001     12.011   ;
     2      NG311      1    LIG     N1      2     -0.806     14.007   ;
     3     HGPAM1      1    LIG      H      3      0.362      1.008   ;
     4      CG311      1    LIG     C1      4      0.346     12.011   ;
     5      NG311      1    LIG     N2      5     -0.864     14.007   ;
     6      CG301      1    LIG     C2      6      0.375     12.011   ;
     7     HGPAM1      1    LIG    HN1      7      0.350      1.008   ;
     8      CG321      1    LIG     C3      8     -0.230     12.011   ;
     9      CG331      1    LIG     C4      9     -0.295     12.011   ;
    10      CG331      1    LIG     C5     10     -0.295     12.011   ;
    11     CG2R61      1    LIG     C6     11      0.075     12.011   ;
    12     CG2R61      1    LIG     C7     12     -0.121     12.011   ;
    13     CG2R61      1    LIG     C8     13     -0.052     12.011   ;
    14     CG2R61      1    LIG     C9     14      0.048     12.011   ;
    15      CLGR1      1    LIG     CL     15     -0.200     35.453   ;
    16     CG2R61      1    LIG    C10     16     -0.099     12.011   ;
    17     CG2R61      1    LIG    C11     17     -0.108     12.011   ;
    18      CG321      1    LIG    C12     18     -0.270     12.011   ;
    19     CG2R51      1    LIG    C13     19      0.126     12.011   ;
    20     CG2R51      1    LIG    C14     20     -0.153     12.011   ;
    21     SG2R50      1    LIG      S     21      0.009     32.060   ;
    22     CG2R51      1    LIG    C15     22     -0.164     12.011   ;
    23     CG2R57      1    LIG    C16     23     -0.486     12.011   ;
    24     CG2R57      1    LIG    C17     24     -0.006     12.011   ;
    25     CG3C52      1    LIG    C18     25      0.126     12.011   ;
    26     NG3C51      1    LIG     N3     26     -0.485     14.007   ;
    27     NG3C51      1    LIG     N4     27     -0.290     14.007   ;
    28      CG331      1    LIG    C19     28     -0.070     12.011   ;
    29     CG2R51      1    LIG    C20     29      0.101     12.011   ;
    30       HGP1      1    LIG    HN2     30      0.305      1.008   ;
    31      CG2O3      1    LIG    C21     31      0.898     12.011   ;
    32      OG2D2      1    LIG      O     32     -0.832     15.999   ;
    33      OG2D2      1    LIG    OXT     33     -0.832     15.999   ;
    34       HGA1      1    LIG     HC     34      0.090      1.008   ;
    35       HGA2      1    LIG    HC2     35      0.090      1.008   ;
    36       HGA2      1    LIG    HC3     36      0.090      1.008   ;
    37       HGA3      1    LIG    HC1     37      0.090      1.008   ;
    38       HGA3      1    LIG    HC4     38      0.090      1.008   ;
    39       HGA3      1    LIG    HC5     39      0.090      1.008   ;
    40       HGA3      1    LIG    HC6     40      0.090      1.008   ;
    41       HGA3      1    LIG    HC7     41      0.090      1.008   ;
    42       HGA3      1    LIG    HC8     42      0.090      1.008   ;
    43      HGR62      1    LIG    HC9     43      0.145      1.008   ;
    44      HGR62      1    LIG   HC10     44      0.150      1.008   ;
    45      HGR61      1    LIG   HC11     45      0.116      1.008   ;
    46       HGA2      1    LIG   HC12     46      0.090      1.008   ;
    47       HGA2      1    LIG   HC13     47      0.090      1.008   ;
    48      HGR52      1    LIG   HC14     48      0.200      1.008   ;
    49      HGR52      1    LIG   HC15     49      0.190      1.008   ;
    50       HGA2      1    LIG   HC16     50      0.090      1.008   ;
    51       HGA3      1    LIG   HC17     51      0.090      1.008   ;
    52       HGA3      1    LIG   HC18     52      0.090      1.008   ;
    53       HGA3      1    LIG   HC19     53      0.090      1.008   ;
    54      HGR52      1    LIG   HC20     54      0.157      1.008   ;
    55       HGA1      1    LIG    H25     55      0.090      1.008   ;
    56       HGA2      1    LIG    H26     56      0.090      1.008   ;
    57        LPH      1    LIG    LP1     57      0.050      0.000   ;

[ bonds ]
;	ai	  aj funct			  c0			c1			  c2			c3
    1     2	 1 ;       CG311      NG311
    1    31	 1 ;       CG311      CG2O3
    1    18	 1 ;       CG311      CG321
    1    34	 1 ;       CG311       HGA1
    2     4	 1 ;       NG311      CG311
    2     3	 1 ;       NG311     HGPAM1
    4     5	 1 ;       CG311      NG311
    4    13	 1 ;       CG311     CG2R61
    4    55	 1 ;       CG311       HGA1
    5     6	 1 ;       NG311      CG301
    5     7	 1 ;       NG311     HGPAM1
    6    10	 1 ;       CG301      CG331
    6     9	 1 ;       CG301      CG331
    6     8	 1 ;       CG301      CG321
    8    11	 1 ;       CG321     CG2R61
    8    35	 1 ;       CG321       HGA2
    8    36	 1 ;       CG321       HGA2
    9    37	 1 ;       CG331       HGA3
    9    38	 1 ;       CG331       HGA3
    9    39	 1 ;       CG331       HGA3
   10    40	 1 ;       CG331       HGA3
   10    41	 1 ;       CG331       HGA3
   10    42	 1 ;       CG331       HGA3
   11    12	 1 ;      CG2R61     CG2R61
   11    13	 1 ;      CG2R61     CG2R61
   12    14	 1 ;      CG2R61     CG2R61
   12    43	 1 ;      CG2R61      HGR62
   13    17	 1 ;      CG2R61     CG2R61
   14    15	 1 ;      CG2R61      CLGR1
   14    16	 1 ;      CG2R61     CG2R61
   16    17	 1 ;      CG2R61     CG2R61
   16    44	 1 ;      CG2R61      HGR62
   17    45	 1 ;      CG2R61      HGR61
   18    19	 1 ;       CG321     CG2R51
   18    46	 1 ;       CG321       HGA2
   18    47	 1 ;       CG321       HGA2
   19    20	 1 ;      CG2R51     CG2R51
   19    23	 1 ;      CG2R51     CG2R57
   20    21	 1 ;      CG2R51     SG2R50
   20    48	 1 ;      CG2R51      HGR52
   21    22	 1 ;      SG2R50     CG2R51
   22    23	 1 ;      CG2R51     CG2R57
   22    49	 1 ;      CG2R51      HGR52
   23    24	 1 ;      CG2R57     CG2R57
   24    29	 1 ;      CG2R57     CG2R51
   24    25	 1 ;      CG2R57     CG3C52
   25    26	 1 ;      CG3C52     NG3C51
   25    50	 1 ;      CG3C52       HGA2
   25    56	 1 ;      CG3C52       HGA2
   26    27	 1 ;      NG3C51     NG3C51
   26    28	 1 ;      NG3C51      CG331
   27    29	 1 ;      NG3C51     CG2R51
   27    30	 1 ;      NG3C51       HGP1
   28    51	 1 ;       CG331       HGA3
   28    52	 1 ;       CG331       HGA3
   28    53	 1 ;       CG331       HGA3
   29    54	 1 ;      CG2R51      HGR52
   31    33	 1 ;       CG2O3      OG2D2
   31    32	 1 ;       CG2O3      OG2D2

[ pairs ]
;	ai	  aj funct			  c0			c1			  c2			c3
    1     5	 1
    1    13	 1
    1    55	 1
    1    20	 1
    1    23	 1
    2    33	 1
    2    32	 1
    2    19	 1
    2    46	 1
    2    47	 1
    2     6	 1
    2     7	 1
    2    11	 1
    2    17	 1
    3    31	 1
    3    18	 1
    3    34	 1
    3     5	 1
    3    13	 1
    3    55	 1
    4    31	 1
    4    18	 1
    4    34	 1
    4    10	 1
    4     9	 1
    4     8	 1
    4    12	 1
    4    16	 1
    4    45	 1
    5    11	 1
    5    17	 1
    5    40	 1
    5    41	 1
    5    42	 1
    5    37	 1
    5    38	 1
    5    39	 1
    5    35	 1
    5    36	 1
    6    13	 1
    6    55	 1
    6    12	 1
    7    13	 1
    7    55	 1
    7    10	 1
    7     9	 1
    7     8	 1
    8    40	 1
    8    41	 1
    8    42	 1
    8    37	 1
    8    38	 1
    8    39	 1
    8    14	 1
    8    43	 1
    8    17	 1
    9    40	 1
    9    41	 1
    9    42	 1
    9    11	 1
    9    35	 1
    9    36	 1
   10    37	 1
   10    38	 1
   10    39	 1
   10    11	 1
   10    35	 1
   10    36	 1
   11    55	 1
   11    15	 1
   57    11	 1
   11    16	 1
   11    45	 1
   12    35	 1
   12    36	 1
   12    17	 1
   12    44	 1
   13    35	 1
   13    36	 1
   13    14	 1
   13    43	 1
   13    44	 1
   14    45	 1
   15    43	 1
   57    43	 1
   15    17	 1
   57    17	 1
   15    44	 1
   57    44	 1
   16    43	 1
   17    55	 1
   18    33	 1
   18    32	 1
   18    21	 1
   18    48	 1
   18    22	 1
   18    24	 1
   19    31	 1
   19    34	 1
   19    49	 1
   19    29	 1
   19    25	 1
   20    46	 1
   20    47	 1
   20    24	 1
   20    49	 1
   21    24	 1
   22    48	 1
   22    29	 1
   22    25	 1
   23    46	 1
   23    47	 1
   23    48	 1
   23    27	 1
   23    54	 1
   23    26	 1
   23    50	 1
   23    56	 1
   24    49	 1
   24    28	 1
   24    30	 1
   25    54	 1
   25    30	 1
   25    51	 1
   25    52	 1
   25    53	 1
   26    54	 1
   27    50	 1
   27    56	 1
   27    51	 1
   27    52	 1
   27    53	 1
   28    50	 1
   28    56	 1
   28    29	 1
   28    30	 1
   29    50	 1
   29    56	 1
   30    54	 1
   31    46	 1
   31    47	 1
   32    34	 1
   33    34	 1
   34    46	 1
   34    47	 1
   44    45	 1

[ angles ]
;	ai	  aj	ak funct			c0			  c1			c2			  c3
    2     1    31	5 ;      NG311      CG311      CG2O3
    2     1    18	5 ;      NG311      CG311      CG321
    2     1    34	5 ;      NG311      CG311       HGA1
   31     1    18	5 ;      CG2O3      CG311      CG321
   31     1    34	5 ;      CG2O3      CG311       HGA1
   18     1    34	5 ;      CG321      CG311       HGA1
    4     2     1	5 ;      CG311      NG311      CG311
    4     2     3	5 ;      CG311      NG311     HGPAM1
    1     2     3	5 ;      CG311      NG311     HGPAM1
    5     4    13	5 ;      NG311      CG311     CG2R61
    5     4     2	5 ;      NG311      CG311      NG311
    5     4    55	5 ;      NG311      CG311       HGA1
   13     4     2	5 ;     CG2R61      CG311      NG311
   13     4    55	5 ;     CG2R61      CG311       HGA1
    2     4    55	5 ;      NG311      CG311       HGA1
    6     5     7	5 ;      CG301      NG311     HGPAM1
    6     5     4	5 ;      CG301      NG311      CG311
    7     5     4	5 ;     HGPAM1      NG311      CG311
   10     6     9	5 ;      CG331      CG301      CG331
   10     6     8	5 ;      CG331      CG301      CG321
   10     6     5	5 ;      CG331      CG301      NG311
    9     6     8	5 ;      CG331      CG301      CG321
    9     6     5	5 ;      CG331      CG301      NG311
    8     6     5	5 ;      CG321      CG301      NG311
    6     8    11	5 ;      CG301      CG321     CG2R61
    6     8    35	5 ;      CG301      CG321       HGA2
    6     8    36	5 ;      CG301      CG321       HGA2
   11     8    35	5 ;     CG2R61      CG321       HGA2
   11     8    36	5 ;     CG2R61      CG321       HGA2
   35     8    36	5 ;       HGA2      CG321       HGA2
    6     9    37	5 ;      CG301      CG331       HGA3
    6     9    38	5 ;      CG301      CG331       HGA3
    6     9    39	5 ;      CG301      CG331       HGA3
   37     9    38	5 ;       HGA3      CG331       HGA3
   37     9    39	5 ;       HGA3      CG331       HGA3
   38     9    39	5 ;       HGA3      CG331       HGA3
    6    10    40	5 ;      CG301      CG331       HGA3
    6    10    41	5 ;      CG301      CG331       HGA3
    6    10    42	5 ;      CG301      CG331       HGA3
   40    10    41	5 ;       HGA3      CG331       HGA3
   40    10    42	5 ;       HGA3      CG331       HGA3
   41    10    42	5 ;       HGA3      CG331       HGA3
   12    11     8	5 ;     CG2R61     CG2R61      CG321
   12    11    13	5 ;     CG2R61     CG2R61     CG2R61
    8    11    13	5 ;      CG321     CG2R61     CG2R61
   14    12    11	5 ;     CG2R61     CG2R61     CG2R61
   14    12    43	5 ;     CG2R61     CG2R61      HGR62
   11    12    43	5 ;     CG2R61     CG2R61      HGR62
   11    13    17	5 ;     CG2R61     CG2R61     CG2R61
   11    13     4	5 ;     CG2R61     CG2R61      CG311
   17    13     4	5 ;     CG2R61     CG2R61      CG311
   15    14    12	5 ;      CLGR1     CG2R61     CG2R61
   15    14    16	5 ;      CLGR1     CG2R61     CG2R61
   12    14    16	5 ;     CG2R61     CG2R61     CG2R61
   14    16    17	5 ;     CG2R61     CG2R61     CG2R61
   14    16    44	5 ;     CG2R61     CG2R61      HGR62
   17    16    44	5 ;     CG2R61     CG2R61      HGR62
   16    17    13	5 ;     CG2R61     CG2R61     CG2R61
   16    17    45	5 ;     CG2R61     CG2R61      HGR61
   13    17    45	5 ;     CG2R61     CG2R61      HGR61
    1    18    19	5 ;      CG311      CG321     CG2R51
    1    18    46	5 ;      CG311      CG321       HGA2
    1    18    47	5 ;      CG311      CG321       HGA2
   19    18    46	5 ;     CG2R51      CG321       HGA2
   19    18    47	5 ;     CG2R51      CG321       HGA2
   46    18    47	5 ;       HGA2      CG321       HGA2
   20    19    18	5 ;     CG2R51     CG2R51      CG321
   20    19    23	5 ;     CG2R51     CG2R51     CG2R57
   18    19    23	5 ;      CG321     CG2R51     CG2R57
   19    20    21	5 ;     CG2R51     CG2R51     SG2R50
   19    20    48	5 ;     CG2R51     CG2R51      HGR52
   21    20    48	5 ;     SG2R50     CG2R51      HGR52
   20    21    22	5 ;     CG2R51     SG2R50     CG2R51
   21    22    23	5 ;     SG2R50     CG2R51     CG2R57
   21    22    49	5 ;     SG2R50     CG2R51      HGR52
   23    22    49	5 ;     CG2R57     CG2R51      HGR52
   19    23    22	5 ;     CG2R51     CG2R57     CG2R51
   19    23    24	5 ;     CG2R51     CG2R57     CG2R57
   22    23    24	5 ;     CG2R51     CG2R57     CG2R57
   23    24    29	5 ;     CG2R57     CG2R57     CG2R51
   23    24    25	5 ;     CG2R57     CG2R57     CG3C52
   29    24    25	5 ;     CG2R51     CG2R57     CG3C52
   24    25    26	5 ;     CG2R57     CG3C52     NG3C51
   24    25    50	5 ;     CG2R57     CG3C52       HGA2
   24    25    56	5 ;     CG2R57     CG3C52       HGA2
   26    25    50	5 ;     NG3C51     CG3C52       HGA2
   26    25    56	5 ;     NG3C51     CG3C52       HGA2
   50    25    56	5 ;       HGA2     CG3C52       HGA2
   25    26    27	5 ;     CG3C52     NG3C51     NG3C51
   25    26    28	5 ;     CG3C52     NG3C51      CG331
   27    26    28	5 ;     NG3C51     NG3C51      CG331
   29    27    26	5 ;     CG2R51     NG3C51     NG3C51
   29    27    30	5 ;     CG2R51     NG3C51       HGP1
   26    27    30	5 ;     NG3C51     NG3C51       HGP1
   26    28    51	5 ;     NG3C51      CG331       HGA3
   26    28    52	5 ;     NG3C51      CG331       HGA3
   26    28    53	5 ;     NG3C51      CG331       HGA3
   51    28    52	5 ;       HGA3      CG331       HGA3
   51    28    53	5 ;       HGA3      CG331       HGA3
   52    28    53	5 ;       HGA3      CG331       HGA3
   24    29    27	5 ;     CG2R57     CG2R51     NG3C51
   24    29    54	5 ;     CG2R57     CG2R51      HGR52
   27    29    54	5 ;     NG3C51     CG2R51      HGR52
   33    31     1	5 ;      OG2D2      CG2O3      CG311
   33    31    32	5 ;      OG2D2      CG2O3      OG2D2
    1    31    32	5 ;      CG311      CG2O3      OG2D2

[ dihedrals ]
;	ai	  aj	ak	  al funct			  c0			c1			  c2			c3			  c4			c5
   31     1     2     4	 9 ;      CG2O3      CG311      NG311      CG311
   31     1     2     3	 9 ;      CG2O3      CG311      NG311     HGPAM1
   18     1     2     4	 9 ;      CG321      CG311      NG311      CG311
   18     1     2     3	 9 ;      CG321      CG311      NG311     HGPAM1
   34     1     2     4	 9 ;       HGA1      CG311      NG311      CG311
   34     1     2     3	 9 ;       HGA1      CG311      NG311     HGPAM1
    2     1    31    33	 9 ;      NG311      CG311      CG2O3      OG2D2
    2     1    31    32	 9 ;      NG311      CG311      CG2O3      OG2D2
   18     1    31    33	 9 ;      CG321      CG311      CG2O3      OG2D2
   18     1    31    32	 9 ;      CG321      CG311      CG2O3      OG2D2
   34     1    31    33	 9 ;       HGA1      CG311      CG2O3      OG2D2
   34     1    31    32	 9 ;       HGA1      CG311      CG2O3      OG2D2
    2     1    18    19	 9 ;      NG311      CG311      CG321     CG2R51
    2     1    18    46	 9 ;      NG311      CG311      CG321       HGA2
    2     1    18    47	 9 ;      NG311      CG311      CG321       HGA2
   31     1    18    19	 9 ;      CG2O3      CG311      CG321     CG2R51
   31     1    18    46	 9 ;      CG2O3      CG311      CG321       HGA2
   31     1    18    47	 9 ;      CG2O3      CG311      CG321       HGA2
   34     1    18    19	 9 ;       HGA1      CG311      CG321     CG2R51
   34     1    18    46	 9 ;       HGA1      CG311      CG321       HGA2
   34     1    18    47	 9 ;       HGA1      CG311      CG321       HGA2
    1     2     4     5	 9 ;      CG311      NG311      CG311      NG311
    1     2     4    13	 9 ;      CG311      NG311      CG311     CG2R61
    1     2     4    55	 9 ;      CG311      NG311      CG311       HGA1
    3     2     4     5	 9 ;     HGPAM1      NG311      CG311      NG311
    3     2     4    13	 9 ;     HGPAM1      NG311      CG311     CG2R61
    3     2     4    55	 9 ;     HGPAM1      NG311      CG311       HGA1
   13     4     5     6	 9 ;     CG2R61      CG311      NG311      CG301
   13     4     5     7	 9 ;     CG2R61      CG311      NG311     HGPAM1
    2     4     5     6	 9 ;      NG311      CG311      NG311      CG301
    2     4     5     7	 9 ;      NG311      CG311      NG311     HGPAM1
   55     4     5     6	 9 ;       HGA1      CG311      NG311      CG301
   55     4     5     7	 9 ;       HGA1      CG311      NG311     HGPAM1
    5     4    13    11	 9 ;      NG311      CG311     CG2R61     CG2R61
    5     4    13    17	 9 ;      NG311      CG311     CG2R61     CG2R61
    2     4    13    11	 9 ;      NG311      CG311     CG2R61     CG2R61
    2     4    13    17	 9 ;      NG311      CG311     CG2R61     CG2R61
   55     4    13    11	 9 ;       HGA1      CG311     CG2R61     CG2R61
   55     4    13    17	 9 ;       HGA1      CG311     CG2R61     CG2R61
    7     5     6    10	 9 ;     HGPAM1      NG311      CG301      CG331
    7     5     6     9	 9 ;     HGPAM1      NG311      CG301      CG331
    7     5     6     8	 9 ;     HGPAM1      NG311      CG301      CG321
    4     5     6    10	 9 ;      CG311      NG311      CG301      CG331
    4     5     6     9	 9 ;      CG311      NG311      CG301      CG331
    4     5     6     8	 9 ;      CG311      NG311      CG301      CG321
    9     6    10    40	 9 ;      CG331      CG301      CG331       HGA3
    9     6    10    41	 9 ;      CG331      CG301      CG331       HGA3
    9     6    10    42	 9 ;      CG331      CG301      CG331       HGA3
    8     6    10    40	 9 ;      CG321      CG301      CG331       HGA3
    8     6    10    41	 9 ;      CG321      CG301      CG331       HGA3
    8     6    10    42	 9 ;      CG321      CG301      CG331       HGA3
    5     6    10    40	 9 ;      NG311      CG301      CG331       HGA3
    5     6    10    41	 9 ;      NG311      CG301      CG331       HGA3
    5     6    10    42	 9 ;      NG311      CG301      CG331       HGA3
   10     6     9    37	 9 ;      CG331      CG301      CG331       HGA3
   10     6     9    38	 9 ;      CG331      CG301      CG331       HGA3
   10     6     9    39	 9 ;      CG331      CG301      CG331       HGA3
    8     6     9    37	 9 ;      CG321      CG301      CG331       HGA3
    8     6     9    38	 9 ;      CG321      CG301      CG331       HGA3
    8     6     9    39	 9 ;      CG321      CG301      CG331       HGA3
    5     6     9    37	 9 ;      NG311      CG301      CG331       HGA3
    5     6     9    38	 9 ;      NG311      CG301      CG331       HGA3
    5     6     9    39	 9 ;      NG311      CG301      CG331       HGA3
   10     6     8    11	 9 ;      CG331      CG301      CG321     CG2R61
   10     6     8    35	 9 ;      CG331      CG301      CG321       HGA2
   10     6     8    36	 9 ;      CG331      CG301      CG321       HGA2
    9     6     8    11	 9 ;      CG331      CG301      CG321     CG2R61
    9     6     8    35	 9 ;      CG331      CG301      CG321       HGA2
    9     6     8    36	 9 ;      CG331      CG301      CG321       HGA2
    5     6     8    11	 9 ;      NG311      CG301      CG321     CG2R61
    5     6     8    35	 9 ;      NG311      CG301      CG321       HGA2
    5     6     8    36	 9 ;      NG311      CG301      CG321       HGA2
    6     8    11    12	 9 ;      CG301      CG321     CG2R61     CG2R61
    6     8    11    13	 9 ;      CG301      CG321     CG2R61     CG2R61
   35     8    11    12	 9 ;       HGA2      CG321     CG2R61     CG2R61
   35     8    11    13	 9 ;       HGA2      CG321     CG2R61     CG2R61
   36     8    11    12	 9 ;       HGA2      CG321     CG2R61     CG2R61
   36     8    11    13	 9 ;       HGA2      CG321     CG2R61     CG2R61
    8    11    12    14	 9 ;      CG321     CG2R61     CG2R61     CG2R61
    8    11    12    43	 9 ;      CG321     CG2R61     CG2R61      HGR62
   13    11    12    14	 9 ;     CG2R61     CG2R61     CG2R61     CG2R61
   13    11    12    43	 9 ;     CG2R61     CG2R61     CG2R61      HGR62
   12    11    13    17	 9 ;     CG2R61     CG2R61     CG2R61     CG2R61
   12    11    13     4	 9 ;     CG2R61     CG2R61     CG2R61      CG311
    8    11    13    17	 9 ;      CG321     CG2R61     CG2R61     CG2R61
    8    11    13     4	 9 ;      CG321     CG2R61     CG2R61      CG311
   11    12    14    15	 9 ;     CG2R61     CG2R61     CG2R61      CLGR1
   11    12    14    16	 9 ;     CG2R61     CG2R61     CG2R61     CG2R61
   43    12    14    15	 9 ;      HGR62     CG2R61     CG2R61      CLGR1
   43    12    14    16	 9 ;      HGR62     CG2R61     CG2R61     CG2R61
   11    13    17    16	 9 ;     CG2R61     CG2R61     CG2R61     CG2R61
   11    13    17    45	 9 ;     CG2R61     CG2R61     CG2R61      HGR61
    4    13    17    16	 9 ;      CG311     CG2R61     CG2R61     CG2R61
    4    13    17    45	 9 ;      CG311     CG2R61     CG2R61      HGR61
   15    14    16    17	 9 ;      CLGR1     CG2R61     CG2R61     CG2R61
   15    14    16    44	 9 ;      CLGR1     CG2R61     CG2R61      HGR62
   12    14    16    17	 9 ;     CG2R61     CG2R61     CG2R61     CG2R61
   12    14    16    44	 9 ;     CG2R61     CG2R61     CG2R61      HGR62
   14    16    17    13	 9 ;     CG2R61     CG2R61     CG2R61     CG2R61
   14    16    17    45	 9 ;     CG2R61     CG2R61     CG2R61      HGR61
   44    16    17    13	 9 ;      HGR62     CG2R61     CG2R61     CG2R61
   44    16    17    45	 9 ;      HGR62     CG2R61     CG2R61      HGR61
    1    18    19    20	 9 ;      CG311      CG321     CG2R51     CG2R51
    1    18    19    23	 9 ;      CG311      CG321     CG2R51     CG2R57
   46    18    19    20	 9 ;       HGA2      CG321     CG2R51     CG2R51
   46    18    19    23	 9 ;       HGA2      CG321     CG2R51     CG2R57
   47    18    19    20	 9 ;       HGA2      CG321     CG2R51     CG2R51
   47    18    19    23	 9 ;       HGA2      CG321     CG2R51     CG2R57
   18    19    20    21	 9 ;      CG321     CG2R51     CG2R51     SG2R50
   18    19    20    48	 9 ;      CG321     CG2R51     CG2R51      HGR52
   23    19    20    21	 9 ;     CG2R57     CG2R51     CG2R51     SG2R50
   23    19    20    48	 9 ;     CG2R57     CG2R51     CG2R51      HGR52
   20    19    23    22	 9 ;     CG2R51     CG2R51     CG2R57     CG2R51
   20    19    23    24	 9 ;     CG2R51     CG2R51     CG2R57     CG2R57
   18    19    23    22	 9 ;      CG321     CG2R51     CG2R57     CG2R51
   18    19    23    24	 9 ;      CG321     CG2R51     CG2R57     CG2R57
   19    20    21    22	 9 ;     CG2R51     CG2R51     SG2R50     CG2R51
   48    20    21    22	 9 ;      HGR52     CG2R51     SG2R50     CG2R51
   20    21    22    23	 9 ;     CG2R51     SG2R50     CG2R51     CG2R57
   20    21    22    49	 9 ;     CG2R51     SG2R50     CG2R51      HGR52
   21    22    23    19	 9 ;     SG2R50     CG2R51     CG2R57     CG2R51
   21    22    23    24	 9 ;     SG2R50     CG2R51     CG2R57     CG2R57
   49    22    23    19	 9 ;      HGR52     CG2R51     CG2R57     CG2R51
   49    22    23    24	 9 ;      HGR52     CG2R51     CG2R57     CG2R57
   19    23    24    29	 9 ;     CG2R51     CG2R57     CG2R57     CG2R51
   19    23    24    25	 9 ;     CG2R51     CG2R57     CG2R57     CG3C52
   22    23    24    29	 9 ;     CG2R51     CG2R57     CG2R57     CG2R51
   22    23    24    25	 9 ;     CG2R51     CG2R57     CG2R57     CG3C52
   23    24    29    27	 9 ;     CG2R57     CG2R57     CG2R51     NG3C51
   23    24    29    54	 9 ;     CG2R57     CG2R57     CG2R51      HGR52
   25    24    29    27	 9 ;     CG3C52     CG2R57     CG2R51     NG3C51
   25    24    29    54	 9 ;     CG3C52     CG2R57     CG2R51      HGR52
   23    24    25    26	 9 ;     CG2R57     CG2R57     CG3C52     NG3C51
   23    24    25    50	 9 ;     CG2R57     CG2R57     CG3C52       HGA2
   23    24    25    56	 9 ;     CG2R57     CG2R57     CG3C52       HGA2
   29    24    25    26	 9 ;     CG2R51     CG2R57     CG3C52     NG3C51
   29    24    25    50	 9 ;     CG2R51     CG2R57     CG3C52       HGA2
   29    24    25    56	 9 ;     CG2R51     CG2R57     CG3C52       HGA2
   24    25    26    27	 9 ;     CG2R57     CG3C52     NG3C51     NG3C51
   24    25    26    28	 9 ;     CG2R57     CG3C52     NG3C51      CG331
   50    25    26    27	 9 ;       HGA2     CG3C52     NG3C51     NG3C51
   50    25    26    28	 9 ;       HGA2     CG3C52     NG3C51      CG331
   56    25    26    27	 9 ;       HGA2     CG3C52     NG3C51     NG3C51
   56    25    26    28	 9 ;       HGA2     CG3C52     NG3C51      CG331
   25    26    27    29	 9 ;     CG3C52     NG3C51     NG3C51     CG2R51
   25    26    27    30	 9 ;     CG3C52     NG3C51     NG3C51       HGP1
   28    26    27    29	 9 ;      CG331     NG3C51     NG3C51     CG2R51
   28    26    27    30	 9 ;      CG331     NG3C51     NG3C51       HGP1
   25    26    28    51	 9 ;     CG3C52     NG3C51      CG331       HGA3
   25    26    28    52	 9 ;     CG3C52     NG3C51      CG331       HGA3
   25    26    28    53	 9 ;     CG3C52     NG3C51      CG331       HGA3
   27    26    28    51	 9 ;     NG3C51     NG3C51      CG331       HGA3
   27    26    28    52	 9 ;     NG3C51     NG3C51      CG331       HGA3
   27    26    28    53	 9 ;     NG3C51     NG3C51      CG331       HGA3
   26    27    29    24	 9 ;     NG3C51     NG3C51     CG2R51     CG2R57
   26    27    29    54	 9 ;     NG3C51     NG3C51     CG2R51      HGR52
   30    27    29    24	 9 ;       HGP1     NG3C51     CG2R51     CG2R57
   30    27    29    54	 9 ;       HGP1     NG3C51     CG2R51      HGR52

[ dihedrals ]
;	ai	  aj	ak	  al funct			  c0			c1			  c2			c3
   31    32    33     1	 2

[ virtual_sites2 ]
; Site   from				funct a
   57    15    14     2   -0.164

[ exclusions ]
;	ai	  aj
   15    57
   57    14
   57    12
   57    16
   57    11
   57    43
   57    17
   57    44

