GROwing Monsters And Cloning Shrimps
   79
    1LIG     C1    1  -1.299   0.308  -1.768
    1LIG     N1    2  -1.388   0.299  -1.651
    1LIG     C2    3  -1.368   0.372  -1.536
    1LIG     O1    4  -1.264   0.432  -1.513
    1LIG     H1    5  -1.485   0.277  -1.671
    1LIG     C3    6  -1.480   0.376  -1.444
    1LIG     C4    7  -1.619   0.347  -1.462
    1LIG     C5    8  -1.682   0.371  -1.339
    1LIG     C6    9  -1.697   0.305  -1.572
    1LIG     N2   10  -1.584   0.405  -1.246
    1LIG     C7   11  -1.823   0.366  -1.327
    1LIG     C8   12  -1.464   0.413  -1.312
    1LIG     C9   13  -1.598   0.429  -1.108
    1LIG     O2   14  -1.535   0.519  -1.056
    1LIG     N3   15  -1.676   0.333  -1.049
    1LIG     H2   16  -1.692   0.248  -1.100
    1LIG    C10   17  -1.898   0.333  -1.440
    1LIG    C11   18  -1.837   0.301  -1.560
    1LIG    C12   19  -1.701   0.331  -0.906
    1LIG    C13   20  -1.607   0.232  -0.838
    1LIG    C14   21  -1.682   0.125  -0.758
    1LIG    C15   22  -1.663  -0.014  -0.816
    1LIG    C16   23  -1.281   0.171  -1.838
    1LIG    C17   24  -1.184   0.080  -1.765
    1LIG    C18   25  -1.047   0.090  -1.790
    1LIG    C19   26  -0.958   0.003  -1.727
    1LIG     F1   27  -0.827   0.013  -1.752
    1LIG    C20   28  -1.003  -0.095  -1.639
    1LIG    C21   29  -1.139  -0.103  -1.614
    1LIG    C22   30  -1.230  -0.017  -1.676
    1LIG     F2   31  -1.185  -0.197  -1.530
    1LIG    C23   32  -1.337   0.421  -1.867
    1LIG    C24   33  -1.240   0.541  -1.858
    1LIG     N4   34  -1.275   0.639  -1.749
    1LIG     H3   35  -1.306   0.586  -1.666
    1LIG     H4   36  -1.193   0.691  -1.717
    1LIG    C25   37  -1.384   0.735  -1.782
    1LIG    C26   38  -1.505   0.714  -1.696
    1LIG    C27   39  -1.499   0.741  -1.559
    1LIG    C28   40  -1.610   0.724  -1.477
    1LIG    C29   41  -1.729   0.677  -1.535
    1LIG    C30   42  -1.736   0.649  -1.671
    1LIG    C31   43  -1.624   0.666  -1.752
    1LIG     O3   44  -1.617   0.748  -1.343
    1LIG    C32   45  -1.742   0.729  -1.278
    1LIG     O4   46  -1.342   0.371  -2.002
    1LIG     H5   47  -1.317   0.276  -2.000
    1LIG     H6   48  -1.203   0.335  -1.728
    1LIG     H7   49  -1.652   0.278  -1.660
    1LIG     H8   50  -1.869   0.386  -1.237
    1LIG     H9   51  -1.375   0.444  -1.270
    1LIG    H10   52  -2.001   0.333  -1.434
    1LIG    H11   53  -1.894   0.273  -1.642
    1LIG    H12   54  -1.802   0.300  -0.889
    1LIG    H13   55  -1.685   0.428  -0.866
    1LIG    H14   56  -1.543   0.286  -0.771
    1LIG    H15   57  -1.550   0.182  -0.914
    1LIG    H16   58  -1.787   0.149  -0.759
    1LIG    H17   59  -1.644   0.125  -0.658
    1LIG    H18   60  -1.701  -0.016  -0.916
    1LIG    H19   61  -1.716  -0.085  -0.756
    1LIG    H20   62  -1.559  -0.038  -0.817
    1LIG    H21   63  -1.245   0.188  -1.938
    1LIG    H22   64  -1.377   0.122  -1.840
    1LIG    H23   65  -1.011   0.162  -1.854
    1LIG    H24   66  -0.937  -0.160  -1.594
    1LIG    H25   67  -1.331  -0.025  -1.656
    1LIG    H26   68  -1.434   0.455  -1.840
    1LIG    H27   69  -1.242   0.594  -1.952
    1LIG    H28   70  -1.143   0.502  -1.835
    1LIG    H29   71  -1.411   0.723  -1.885
    1LIG    H30   72  -1.348   0.834  -1.763
    1LIG    H31   73  -1.410   0.775  -1.518
    1LIG    H32   74  -1.812   0.664  -1.476
    1LIG    H33   75  -1.824   0.615  -1.712
    1LIG    H34   76  -1.629   0.643  -1.853
    1LIG    H35   77  -1.732   0.751  -1.174
    1LIG    H36   78  -1.773   0.627  -1.290
    1LIG    H37   79  -1.815   0.793  -1.322
   0.00000   0.00000   0.00000
