; Created by cgenff_charmm2gmx.py

[ moleculetype ]
; Name			   nrexcl
LIG				 3

[ atoms ]
;	 nr		  type	resnr residue  atom   cgnr	   charge		mass  typeB    chargeB		massB
; residue	 1 LIG rtp LIG q	qsum
     1      CG311      1    LIG     C1      1      0.008     12.011   ;
     2      NG2S1      1    LIG     N1      2     -0.397     14.007   ;
     3      CG2O1      1    LIG     C2      3      0.600     12.011   ;
     4      OG2D1      1    LIG     O1      4     -0.474     15.999   ;
     5       HGP1      1    LIG     H1      5      0.263      1.008   ;
     6     CG2R51      1    LIG     C3      6     -0.766     12.011   ;
     7     CG2RC0      1    LIG     C4      7      0.840     12.011   ;
     8     CG2RC0      1    LIG     C5      8      0.143     12.011   ;
     9     CG2R61      1    LIG     C6      9     -0.460     12.011   ;
    10     NG2R51      1    LIG     N2     10     -0.219     14.007   ;
    11     CG2R61      1    LIG     C7     11     -0.257     12.011   ;
    12     CG2R51      1    LIG     C8     12     -0.080     12.011   ;
    13      CG2O6      1    LIG     C9     13      0.481     12.011   ;
    14      OG2D1      1    LIG     O2     14     -0.442     15.999   ;
    15      NG2S1      1    LIG     N3     15     -0.311     14.007   ;
    16       HGP1      1    LIG     H2     16      0.253      1.008   ;
    17     CG2R61      1    LIG    C10     17     -0.177     12.011   ;
    18     CG2R61      1    LIG    C11     18     -0.205     12.011   ;
    19      CG321      1    LIG    C12     19      0.040     12.011   ;
    20      CG321      1    LIG    C13     20     -0.205     12.011   ;
    21      CG321      1    LIG    C14     21     -0.178     12.011   ;
    22      CG331      1    LIG    C15     22     -0.270     12.011   ;
    23      CG321      1    LIG    C16     23     -0.153     12.011   ;
    24     CG2R61      1    LIG    C17     24      0.057     12.011   ;
    25     CG2R61      1    LIG    C18     25     -0.218     12.011   ;
    26     CG2R66      1    LIG    C19     26      0.261     12.011   ;
    27       FGR1      1    LIG     F1     27     -0.210     18.998   ;
    28     CG2R61      1    LIG    C20     28     -0.240     12.011   ;
    29     CG2R66      1    LIG    C21     29      0.261     12.011   ;
    30     CG2R61      1    LIG    C22     30     -0.218     12.011   ;
    31       FGR1      1    LIG     F2     31     -0.210     18.998   ;
    32      CG311      1    LIG    C23     32      0.094     12.011   ;
    33      CG324      1    LIG    C24     33      0.178     12.011   ;
    34      NG3P2      1    LIG     N4     34     -0.444     14.007   ;
    35       HGP2      1    LIG     H3     35      0.348      1.008   ;
    36       HGP2      1    LIG     H4     36      0.348      1.008   ;
    37      CG324      1    LIG    C25     37      0.171     12.011   ;
    38     CG2R61      1    LIG    C26     38      0.036     12.011   ;
    39     CG2R61      1    LIG    C27     39     -0.124     12.011   ;
    40     CG2R61      1    LIG    C28     40      0.216     12.011   ;
    41     CG2R61      1    LIG    C29     41     -0.121     12.011   ;
    42     CG2R61      1    LIG    C30     42     -0.108     12.011   ;
    43     CG2R61      1    LIG    C31     43     -0.119     12.011   ;
    44      OG301      1    LIG     O3     44     -0.383     15.999   ;
    45      CG331      1    LIG    C32     45     -0.094     12.011   ;
    46      OG311      1    LIG     O4     46     -0.625     15.999   ;
    47       HGP1      1    LIG     H5     47      0.415      1.008   ;
    48       HGA1      1    LIG     H6     48      0.090      1.008   ;
    49      HGR61      1    LIG     H7     49      0.197      1.008   ;
    50      HGR61      1    LIG     H8     50      0.184      1.008   ;
    51      HGR52      1    LIG     H9     51      0.248      1.008   ;
    52      HGR61      1    LIG    H10     52      0.134      1.008   ;
    53      HGR61      1    LIG    H11     53      0.134      1.008   ;
    54       HGA2      1    LIG    H12     54      0.090      1.008   ;
    55       HGA2      1    LIG    H13     55      0.090      1.008   ;
    56       HGA2      1    LIG    H14     56      0.090      1.008   ;
    57       HGA2      1    LIG    H15     57      0.090      1.008   ;
    58       HGA2      1    LIG    H16     58      0.090      1.008   ;
    59       HGA2      1    LIG    H17     59      0.090      1.008   ;
    60       HGA3      1    LIG    H18     60      0.090      1.008   ;
    61       HGA3      1    LIG    H19     61      0.090      1.008   ;
    62       HGA3      1    LIG    H20     62      0.090      1.008   ;
    63       HGA2      1    LIG    H21     63      0.090      1.008   ;
    64       HGA2      1    LIG    H22     64      0.090      1.008   ;
    65      HGR62      1    LIG    H23     65      0.174      1.008   ;
    66      HGR62      1    LIG    H24     66      0.186      1.008   ;
    67      HGR62      1    LIG    H25     67      0.174      1.008   ;
    68       HGA1      1    LIG    H26     68      0.090      1.008   ;
    69       HGA2      1    LIG    H27     69      0.090      1.008   ;
    70       HGA2      1    LIG    H28     70      0.090      1.008   ;
    71       HGA2      1    LIG    H29     71      0.090      1.008   ;
    72       HGA2      1    LIG    H30     72      0.090      1.008   ;
    73      HGR61      1    LIG    H31     73      0.116      1.008   ;
    74      HGR61      1    LIG    H32     74      0.116      1.008   ;
    75      HGR61      1    LIG    H33     75      0.116      1.008   ;
    76      HGR61      1    LIG    H34     76      0.116      1.008   ;
    77       HGA3      1    LIG    H35     77      0.090      1.008   ;
    78       HGA3      1    LIG    H36     78      0.090      1.008   ;
    79       HGA3      1    LIG    H37     79      0.090      1.008   ;

[ bonds ]
;	ai	  aj funct			  c0			c1			  c2			c3
    1    32	 1 ;       CG311      CG311
    1    23	 1 ;       CG311      CG321
    1     2	 1 ;       CG311      NG2S1
    1    48	 1 ;       CG311       HGA1
    2     5	 1 ;       NG2S1       HGP1
    2     3	 1 ;       NG2S1      CG2O1
    3     4	 1 ;       CG2O1      OG2D1
    3     6	 1 ;       CG2O1     CG2R51
    6     7	 1 ;      CG2R51     CG2RC0
    6    12	 1 ;      CG2R51     CG2R51
    7     9	 1 ;      CG2RC0     CG2R61
    7     8	 1 ;      CG2RC0     CG2RC0
    8    11	 1 ;      CG2RC0     CG2R61
    8    10	 1 ;      CG2RC0     NG2R51
    9    18	 1 ;      CG2R61     CG2R61
    9    49	 1 ;      CG2R61      HGR61
   10    12	 1 ;      NG2R51     CG2R51
   10    13	 1 ;      NG2R51      CG2O6
   11    17	 1 ;      CG2R61     CG2R61
   11    50	 1 ;      CG2R61      HGR61
   12    51	 1 ;      CG2R51      HGR52
   13    14	 1 ;       CG2O6      OG2D1
   13    15	 1 ;       CG2O6      NG2S1
   15    16	 1 ;       NG2S1       HGP1
   15    19	 1 ;       NG2S1      CG321
   17    18	 1 ;      CG2R61     CG2R61
   17    52	 1 ;      CG2R61      HGR61
   18    53	 1 ;      CG2R61      HGR61
   19    20	 1 ;       CG321      CG321
   19    54	 1 ;       CG321       HGA2
   19    55	 1 ;       CG321       HGA2
   20    21	 1 ;       CG321      CG321
   20    56	 1 ;       CG321       HGA2
   20    57	 1 ;       CG321       HGA2
   21    22	 1 ;       CG321      CG331
   21    58	 1 ;       CG321       HGA2
   21    59	 1 ;       CG321       HGA2
   22    60	 1 ;       CG331       HGA3
   22    61	 1 ;       CG331       HGA3
   22    62	 1 ;       CG331       HGA3
   23    24	 1 ;       CG321     CG2R61
   23    63	 1 ;       CG321       HGA2
   23    64	 1 ;       CG321       HGA2
   24    25	 1 ;      CG2R61     CG2R61
   24    30	 1 ;      CG2R61     CG2R61
   25    26	 1 ;      CG2R61     CG2R66
   25    65	 1 ;      CG2R61      HGR62
   26    27	 1 ;      CG2R66       FGR1
   26    28	 1 ;      CG2R66     CG2R61
   28    29	 1 ;      CG2R61     CG2R66
   28    66	 1 ;      CG2R61      HGR62
   29    30	 1 ;      CG2R66     CG2R61
   29    31	 1 ;      CG2R66       FGR1
   30    67	 1 ;      CG2R61      HGR62
   32    46	 1 ;       CG311      OG311
   32    33	 1 ;       CG311      CG324
   32    68	 1 ;       CG311       HGA1
   33    34	 1 ;       CG324      NG3P2
   33    69	 1 ;       CG324       HGA2
   33    70	 1 ;       CG324       HGA2
   34    37	 1 ;       NG3P2      CG324
   34    36	 1 ;       NG3P2       HGP2
   34    35	 1 ;       NG3P2       HGP2
   37    38	 1 ;       CG324     CG2R61
   37    71	 1 ;       CG324       HGA2
   37    72	 1 ;       CG324       HGA2
   38    43	 1 ;      CG2R61     CG2R61
   38    39	 1 ;      CG2R61     CG2R61
   39    40	 1 ;      CG2R61     CG2R61
   39    73	 1 ;      CG2R61      HGR61
   40    41	 1 ;      CG2R61     CG2R61
   40    44	 1 ;      CG2R61      OG301
   41    42	 1 ;      CG2R61     CG2R61
   41    74	 1 ;      CG2R61      HGR61
   42    43	 1 ;      CG2R61     CG2R61
   42    75	 1 ;      CG2R61      HGR61
   43    76	 1 ;      CG2R61      HGR61
   44    45	 1 ;       OG301      CG331
   45    77	 1 ;       CG331       HGA3
   45    78	 1 ;       CG331       HGA3
   45    79	 1 ;       CG331       HGA3
   46    47	 1 ;       OG311       HGP1

[ pairs ]
;	ai	  aj funct			  c0			c1			  c2			c3
    1     4	 1
    1     6	 1
    1    25	 1
    1    30	 1
    1    47	 1
    1    34	 1
    1    69	 1
    1    70	 1
    2    46	 1
    2    33	 1
    2    68	 1
    2    24	 1
    2    63	 1
    2    64	 1
    2     7	 1
    2    12	 1
    3    32	 1
    3    23	 1
    3    48	 1
    3     9	 1
    3     8	 1
    3    10	 1
    3    51	 1
    4     5	 1
    4     7	 1
    4    12	 1
    5    32	 1
    5    23	 1
    5    48	 1
    5     6	 1
    6    18	 1
    6    49	 1
    6    11	 1
    6    13	 1
    7    51	 1
    7    17	 1
    7    50	 1
    7    13	 1
    7    53	 1
    8    18	 1
    8    49	 1
    8    51	 1
    8    14	 1
    8    15	 1
    8    52	 1
    9    12	 1
    9    11	 1
    9    10	 1
    9    52	 1
   10    17	 1
   10    50	 1
   10    16	 1
   10    19	 1
   11    12	 1
   11    13	 1
   11    53	 1
   12    14	 1
   12    15	 1
   13    51	 1
   13    20	 1
   13    54	 1
   13    55	 1
   14    16	 1
   14    19	 1
   15    21	 1
   15    56	 1
   15    57	 1
   16    20	 1
   16    54	 1
   16    55	 1
   17    49	 1
   18    50	 1
   19    22	 1
   19    58	 1
   19    59	 1
   20    60	 1
   20    61	 1
   20    62	 1
   21    54	 1
   21    55	 1
   22    56	 1
   22    57	 1
   23    46	 1
   23    33	 1
   23    68	 1
   23    26	 1
   23    65	 1
   23    29	 1
   23    67	 1
   24    32	 1
   24    48	 1
   24    27	 1
   24    28	 1
   24    31	 1
   25    63	 1
   25    64	 1
   25    29	 1
   25    67	 1
   25    66	 1
   26    30	 1
   26    31	 1
   27    65	 1
   27    29	 1
   27    66	 1
   28    65	 1
   28    67	 1
   30    63	 1
   30    64	 1
   30    65	 1
   30    66	 1
   31    66	 1
   31    67	 1
   32    63	 1
   32    64	 1
   32    37	 1
   32    36	 1
   32    35	 1
   33    48	 1
   33    47	 1
   33    38	 1
   33    71	 1
   33    72	 1
   34    46	 1
   34    68	 1
   34    43	 1
   34    39	 1
   35    69	 1
   35    70	 1
   35    38	 1
   35    71	 1
   35    72	 1
   36    69	 1
   36    70	 1
   36    38	 1
   36    71	 1
   36    72	 1
   37    69	 1
   37    70	 1
   37    42	 1
   37    76	 1
   37    40	 1
   37    73	 1
   38    41	 1
   38    44	 1
   38    75	 1
   39    71	 1
   39    72	 1
   39    42	 1
   39    76	 1
   39    74	 1
   39    45	 1
   40    43	 1
   40    75	 1
   40    77	 1
   40    78	 1
   40    79	 1
   41    73	 1
   41    45	 1
   41    76	 1
   42    44	 1
   43    71	 1
   43    72	 1
   43    73	 1
   43    74	 1
   44    73	 1
   44    74	 1
   46    48	 1
   46    69	 1
   46    70	 1
   47    68	 1
   48    68	 1
   48    63	 1
   48    64	 1
   49    53	 1
   50    52	 1
   52    53	 1
   54    56	 1
   54    57	 1
   55    56	 1
   55    57	 1
   56    58	 1
   56    59	 1
   57    58	 1
   57    59	 1
   58    60	 1
   58    61	 1
   58    62	 1
   59    60	 1
   59    61	 1
   59    62	 1
   68    69	 1
   68    70	 1
   74    75	 1
   75    76	 1

[ angles ]
;	ai	  aj	ak funct			c0			  c1			c2			  c3
   32     1    23	5 ;      CG311      CG311      CG321
   32     1     2	5 ;      CG311      CG311      NG2S1
   32     1    48	5 ;      CG311      CG311       HGA1
   23     1     2	5 ;      CG321      CG311      NG2S1
   23     1    48	5 ;      CG321      CG311       HGA1
    2     1    48	5 ;      NG2S1      CG311       HGA1
    1     2     5	5 ;      CG311      NG2S1       HGP1
    1     2     3	5 ;      CG311      NG2S1      CG2O1
    5     2     3	5 ;       HGP1      NG2S1      CG2O1
    2     3     4	5 ;      NG2S1      CG2O1      OG2D1
    2     3     6	5 ;      NG2S1      CG2O1     CG2R51
    4     3     6	5 ;      OG2D1      CG2O1     CG2R51
    3     6     7	5 ;      CG2O1     CG2R51     CG2RC0
    3     6    12	5 ;      CG2O1     CG2R51     CG2R51
    7     6    12	5 ;     CG2RC0     CG2R51     CG2R51
    9     7     6	5 ;     CG2R61     CG2RC0     CG2R51
    9     7     8	5 ;     CG2R61     CG2RC0     CG2RC0
    6     7     8	5 ;     CG2R51     CG2RC0     CG2RC0
    7     8    11	5 ;     CG2RC0     CG2RC0     CG2R61
    7     8    10	5 ;     CG2RC0     CG2RC0     NG2R51
   11     8    10	5 ;     CG2R61     CG2RC0     NG2R51
   18     9     7	5 ;     CG2R61     CG2R61     CG2RC0
   18     9    49	5 ;     CG2R61     CG2R61      HGR61
    7     9    49	5 ;     CG2RC0     CG2R61      HGR61
    8    10    12	5 ;     CG2RC0     NG2R51     CG2R51
    8    10    13	5 ;     CG2RC0     NG2R51      CG2O6
   12    10    13	5 ;     CG2R51     NG2R51      CG2O6
   17    11     8	5 ;     CG2R61     CG2R61     CG2RC0
   17    11    50	5 ;     CG2R61     CG2R61      HGR61
    8    11    50	5 ;     CG2RC0     CG2R61      HGR61
    6    12    10	5 ;     CG2R51     CG2R51     NG2R51
    6    12    51	5 ;     CG2R51     CG2R51      HGR52
   10    12    51	5 ;     NG2R51     CG2R51      HGR52
   10    13    14	5 ;     NG2R51      CG2O6      OG2D1
   10    13    15	5 ;     NG2R51      CG2O6      NG2S1
   14    13    15	5 ;      OG2D1      CG2O6      NG2S1
   13    15    16	5 ;      CG2O6      NG2S1       HGP1
   13    15    19	5 ;      CG2O6      NG2S1      CG321
   16    15    19	5 ;       HGP1      NG2S1      CG321
   18    17    11	5 ;     CG2R61     CG2R61     CG2R61
   18    17    52	5 ;     CG2R61     CG2R61      HGR61
   11    17    52	5 ;     CG2R61     CG2R61      HGR61
    9    18    17	5 ;     CG2R61     CG2R61     CG2R61
    9    18    53	5 ;     CG2R61     CG2R61      HGR61
   17    18    53	5 ;     CG2R61     CG2R61      HGR61
   15    19    20	5 ;      NG2S1      CG321      CG321
   15    19    54	5 ;      NG2S1      CG321       HGA2
   15    19    55	5 ;      NG2S1      CG321       HGA2
   20    19    54	5 ;      CG321      CG321       HGA2
   20    19    55	5 ;      CG321      CG321       HGA2
   54    19    55	5 ;       HGA2      CG321       HGA2
   19    20    21	5 ;      CG321      CG321      CG321
   19    20    56	5 ;      CG321      CG321       HGA2
   19    20    57	5 ;      CG321      CG321       HGA2
   21    20    56	5 ;      CG321      CG321       HGA2
   21    20    57	5 ;      CG321      CG321       HGA2
   56    20    57	5 ;       HGA2      CG321       HGA2
   20    21    22	5 ;      CG321      CG321      CG331
   20    21    58	5 ;      CG321      CG321       HGA2
   20    21    59	5 ;      CG321      CG321       HGA2
   22    21    58	5 ;      CG331      CG321       HGA2
   22    21    59	5 ;      CG331      CG321       HGA2
   58    21    59	5 ;       HGA2      CG321       HGA2
   21    22    60	5 ;      CG321      CG331       HGA3
   21    22    61	5 ;      CG321      CG331       HGA3
   21    22    62	5 ;      CG321      CG331       HGA3
   60    22    61	5 ;       HGA3      CG331       HGA3
   60    22    62	5 ;       HGA3      CG331       HGA3
   61    22    62	5 ;       HGA3      CG331       HGA3
    1    23    24	5 ;      CG311      CG321     CG2R61
    1    23    63	5 ;      CG311      CG321       HGA2
    1    23    64	5 ;      CG311      CG321       HGA2
   24    23    63	5 ;     CG2R61      CG321       HGA2
   24    23    64	5 ;     CG2R61      CG321       HGA2
   63    23    64	5 ;       HGA2      CG321       HGA2
   23    24    25	5 ;      CG321     CG2R61     CG2R61
   23    24    30	5 ;      CG321     CG2R61     CG2R61
   25    24    30	5 ;     CG2R61     CG2R61     CG2R61
   24    25    26	5 ;     CG2R61     CG2R61     CG2R66
   24    25    65	5 ;     CG2R61     CG2R61      HGR62
   26    25    65	5 ;     CG2R66     CG2R61      HGR62
   25    26    27	5 ;     CG2R61     CG2R66       FGR1
   25    26    28	5 ;     CG2R61     CG2R66     CG2R61
   27    26    28	5 ;       FGR1     CG2R66     CG2R61
   26    28    29	5 ;     CG2R66     CG2R61     CG2R66
   26    28    66	5 ;     CG2R66     CG2R61      HGR62
   29    28    66	5 ;     CG2R66     CG2R61      HGR62
   30    29    28	5 ;     CG2R61     CG2R66     CG2R61
   30    29    31	5 ;     CG2R61     CG2R66       FGR1
   28    29    31	5 ;     CG2R61     CG2R66       FGR1
   24    30    29	5 ;     CG2R61     CG2R61     CG2R66
   24    30    67	5 ;     CG2R61     CG2R61      HGR62
   29    30    67	5 ;     CG2R66     CG2R61      HGR62
   46    32    33	5 ;      OG311      CG311      CG324
   46    32     1	5 ;      OG311      CG311      CG311
   46    32    68	5 ;      OG311      CG311       HGA1
   33    32     1	5 ;      CG324      CG311      CG311
   33    32    68	5 ;      CG324      CG311       HGA1
    1    32    68	5 ;      CG311      CG311       HGA1
   32    33    34	5 ;      CG311      CG324      NG3P2
   32    33    69	5 ;      CG311      CG324       HGA2
   32    33    70	5 ;      CG311      CG324       HGA2
   34    33    69	5 ;      NG3P2      CG324       HGA2
   34    33    70	5 ;      NG3P2      CG324       HGA2
   69    33    70	5 ;       HGA2      CG324       HGA2
   33    34    37	5 ;      CG324      NG3P2      CG324
   33    34    36	5 ;      CG324      NG3P2       HGP2
   33    34    35	5 ;      CG324      NG3P2       HGP2
   37    34    36	5 ;      CG324      NG3P2       HGP2
   37    34    35	5 ;      CG324      NG3P2       HGP2
   36    34    35	5 ;       HGP2      NG3P2       HGP2
   34    37    38	5 ;      NG3P2      CG324     CG2R61
   34    37    71	5 ;      NG3P2      CG324       HGA2
   34    37    72	5 ;      NG3P2      CG324       HGA2
   38    37    71	5 ;     CG2R61      CG324       HGA2
   38    37    72	5 ;     CG2R61      CG324       HGA2
   71    37    72	5 ;       HGA2      CG324       HGA2
   37    38    43	5 ;      CG324     CG2R61     CG2R61
   37    38    39	5 ;      CG324     CG2R61     CG2R61
   43    38    39	5 ;     CG2R61     CG2R61     CG2R61
   38    39    40	5 ;     CG2R61     CG2R61     CG2R61
   38    39    73	5 ;     CG2R61     CG2R61      HGR61
   40    39    73	5 ;     CG2R61     CG2R61      HGR61
   39    40    41	5 ;     CG2R61     CG2R61     CG2R61
   39    40    44	5 ;     CG2R61     CG2R61      OG301
   41    40    44	5 ;     CG2R61     CG2R61      OG301
   42    41    40	5 ;     CG2R61     CG2R61     CG2R61
   42    41    74	5 ;     CG2R61     CG2R61      HGR61
   40    41    74	5 ;     CG2R61     CG2R61      HGR61
   43    42    41	5 ;     CG2R61     CG2R61     CG2R61
   43    42    75	5 ;     CG2R61     CG2R61      HGR61
   41    42    75	5 ;     CG2R61     CG2R61      HGR61
   38    43    42	5 ;     CG2R61     CG2R61     CG2R61
   38    43    76	5 ;     CG2R61     CG2R61      HGR61
   42    43    76	5 ;     CG2R61     CG2R61      HGR61
   40    44    45	5 ;     CG2R61      OG301      CG331
   44    45    77	5 ;      OG301      CG331       HGA3
   44    45    78	5 ;      OG301      CG331       HGA3
   44    45    79	5 ;      OG301      CG331       HGA3
   77    45    78	5 ;       HGA3      CG331       HGA3
   77    45    79	5 ;       HGA3      CG331       HGA3
   78    45    79	5 ;       HGA3      CG331       HGA3
   47    46    32	5 ;       HGP1      OG311      CG311

[ dihedrals ]
;	ai	  aj	ak	  al funct			  c0			c1			  c2			c3			  c4			c5
   23     1    32    46	 9 ;      CG321      CG311      CG311      OG311
   23     1    32    33	 9 ;      CG321      CG311      CG311      CG324
   23     1    32    68	 9 ;      CG321      CG311      CG311       HGA1
    2     1    32    46	 9 ;      NG2S1      CG311      CG311      OG311
    2     1    32    33	 9 ;      NG2S1      CG311      CG311      CG324
    2     1    32    68	 9 ;      NG2S1      CG311      CG311       HGA1
   48     1    32    46	 9 ;       HGA1      CG311      CG311      OG311
   48     1    32    33	 9 ;       HGA1      CG311      CG311      CG324
   48     1    32    68	 9 ;       HGA1      CG311      CG311       HGA1
   32     1    23    24	 9 ;      CG311      CG311      CG321     CG2R61
   32     1    23    63	 9 ;      CG311      CG311      CG321       HGA2
   32     1    23    64	 9 ;      CG311      CG311      CG321       HGA2
    2     1    23    24	 9 ;      NG2S1      CG311      CG321     CG2R61
    2     1    23    63	 9 ;      NG2S1      CG311      CG321       HGA2
    2     1    23    64	 9 ;      NG2S1      CG311      CG321       HGA2
   48     1    23    24	 9 ;       HGA1      CG311      CG321     CG2R61
   48     1    23    63	 9 ;       HGA1      CG311      CG321       HGA2
   48     1    23    64	 9 ;       HGA1      CG311      CG321       HGA2
   32     1     2     5	 9 ;      CG311      CG311      NG2S1       HGP1
   32     1     2     3	 9 ;      CG311      CG311      NG2S1      CG2O1
   23     1     2     5	 9 ;      CG321      CG311      NG2S1       HGP1
   23     1     2     3	 9 ;      CG321      CG311      NG2S1      CG2O1
   48     1     2     5	 9 ;       HGA1      CG311      NG2S1       HGP1
   48     1     2     3	 9 ;       HGA1      CG311      NG2S1      CG2O1
    1     2     3     4	 9 ;      CG311      NG2S1      CG2O1      OG2D1
    1     2     3     6	 9 ;      CG311      NG2S1      CG2O1     CG2R51
    5     2     3     4	 9 ;       HGP1      NG2S1      CG2O1      OG2D1
    5     2     3     6	 9 ;       HGP1      NG2S1      CG2O1     CG2R51
    2     3     6     7	 9 ;      NG2S1      CG2O1     CG2R51     CG2RC0
    2     3     6    12	 9 ;      NG2S1      CG2O1     CG2R51     CG2R51
    4     3     6     7	 9 ;      OG2D1      CG2O1     CG2R51     CG2RC0
    4     3     6    12	 9 ;      OG2D1      CG2O1     CG2R51     CG2R51
    3     6     7     9	 9 ;      CG2O1     CG2R51     CG2RC0     CG2R61
    3     6     7     8	 9 ;      CG2O1     CG2R51     CG2RC0     CG2RC0
   12     6     7     9	 9 ;     CG2R51     CG2R51     CG2RC0     CG2R61
   12     6     7     8	 9 ;     CG2R51     CG2R51     CG2RC0     CG2RC0
    3     6    12    10	 9 ;      CG2O1     CG2R51     CG2R51     NG2R51
    3     6    12    51	 9 ;      CG2O1     CG2R51     CG2R51      HGR52
    7     6    12    10	 9 ;     CG2RC0     CG2R51     CG2R51     NG2R51
    7     6    12    51	 9 ;     CG2RC0     CG2R51     CG2R51      HGR52
    6     7     9    18	 9 ;     CG2R51     CG2RC0     CG2R61     CG2R61
    6     7     9    49	 9 ;     CG2R51     CG2RC0     CG2R61      HGR61
    8     7     9    18	 9 ;     CG2RC0     CG2RC0     CG2R61     CG2R61
    8     7     9    49	 9 ;     CG2RC0     CG2RC0     CG2R61      HGR61
    9     7     8    11	 9 ;     CG2R61     CG2RC0     CG2RC0     CG2R61
    9     7     8    10	 9 ;     CG2R61     CG2RC0     CG2RC0     NG2R51
    6     7     8    11	 9 ;     CG2R51     CG2RC0     CG2RC0     CG2R61
    6     7     8    10	 9 ;     CG2R51     CG2RC0     CG2RC0     NG2R51
    7     8    11    17	 9 ;     CG2RC0     CG2RC0     CG2R61     CG2R61
    7     8    11    50	 9 ;     CG2RC0     CG2RC0     CG2R61      HGR61
   10     8    11    17	 9 ;     NG2R51     CG2RC0     CG2R61     CG2R61
   10     8    11    50	 9 ;     NG2R51     CG2RC0     CG2R61      HGR61
    7     8    10    12	 9 ;     CG2RC0     CG2RC0     NG2R51     CG2R51
    7     8    10    13	 9 ;     CG2RC0     CG2RC0     NG2R51      CG2O6
   11     8    10    12	 9 ;     CG2R61     CG2RC0     NG2R51     CG2R51
   11     8    10    13	 9 ;     CG2R61     CG2RC0     NG2R51      CG2O6
    7     9    18    17	 9 ;     CG2RC0     CG2R61     CG2R61     CG2R61
    7     9    18    53	 9 ;     CG2RC0     CG2R61     CG2R61      HGR61
   49     9    18    17	 9 ;      HGR61     CG2R61     CG2R61     CG2R61
   49     9    18    53	 9 ;      HGR61     CG2R61     CG2R61      HGR61
    8    10    12     6	 9 ;     CG2RC0     NG2R51     CG2R51     CG2R51
    8    10    12    51	 9 ;     CG2RC0     NG2R51     CG2R51      HGR52
   13    10    12     6	 9 ;      CG2O6     NG2R51     CG2R51     CG2R51
   13    10    12    51	 9 ;      CG2O6     NG2R51     CG2R51      HGR52
    8    10    13    14	 9 ;     CG2RC0     NG2R51      CG2O6      OG2D1
    8    10    13    15	 9 ;     CG2RC0     NG2R51      CG2O6      NG2S1
   12    10    13    14	 9 ;     CG2R51     NG2R51      CG2O6      OG2D1
   12    10    13    15	 9 ;     CG2R51     NG2R51      CG2O6      NG2S1
    8    11    17    18	 9 ;     CG2RC0     CG2R61     CG2R61     CG2R61
    8    11    17    52	 9 ;     CG2RC0     CG2R61     CG2R61      HGR61
   50    11    17    18	 9 ;      HGR61     CG2R61     CG2R61     CG2R61
   50    11    17    52	 9 ;      HGR61     CG2R61     CG2R61      HGR61
   10    13    15    16	 9 ;     NG2R51      CG2O6      NG2S1       HGP1
   10    13    15    19	 9 ;     NG2R51      CG2O6      NG2S1      CG321
   14    13    15    16	 9 ;      OG2D1      CG2O6      NG2S1       HGP1
   14    13    15    19	 9 ;      OG2D1      CG2O6      NG2S1      CG321
   13    15    19    20	 9 ;      CG2O6      NG2S1      CG321      CG321
   13    15    19    54	 9 ;      CG2O6      NG2S1      CG321       HGA2
   13    15    19    55	 9 ;      CG2O6      NG2S1      CG321       HGA2
   16    15    19    20	 9 ;       HGP1      NG2S1      CG321      CG321
   16    15    19    54	 9 ;       HGP1      NG2S1      CG321       HGA2
   16    15    19    55	 9 ;       HGP1      NG2S1      CG321       HGA2
   11    17    18     9	 9 ;     CG2R61     CG2R61     CG2R61     CG2R61
   11    17    18    53	 9 ;     CG2R61     CG2R61     CG2R61      HGR61
   52    17    18     9	 9 ;      HGR61     CG2R61     CG2R61     CG2R61
   52    17    18    53	 9 ;      HGR61     CG2R61     CG2R61      HGR61
   15    19    20    21	 9 ;      NG2S1      CG321      CG321      CG321
   15    19    20    56	 9 ;      NG2S1      CG321      CG321       HGA2
   15    19    20    57	 9 ;      NG2S1      CG321      CG321       HGA2
   54    19    20    21	 9 ;       HGA2      CG321      CG321      CG321
   54    19    20    56	 9 ;       HGA2      CG321      CG321       HGA2
   54    19    20    57	 9 ;       HGA2      CG321      CG321       HGA2
   55    19    20    21	 9 ;       HGA2      CG321      CG321      CG321
   55    19    20    56	 9 ;       HGA2      CG321      CG321       HGA2
   55    19    20    57	 9 ;       HGA2      CG321      CG321       HGA2
   19    20    21    22	 9 ;      CG321      CG321      CG321      CG331
   19    20    21    58	 9 ;      CG321      CG321      CG321       HGA2
   19    20    21    59	 9 ;      CG321      CG321      CG321       HGA2
   56    20    21    22	 9 ;       HGA2      CG321      CG321      CG331
   56    20    21    58	 9 ;       HGA2      CG321      CG321       HGA2
   56    20    21    59	 9 ;       HGA2      CG321      CG321       HGA2
   57    20    21    22	 9 ;       HGA2      CG321      CG321      CG331
   57    20    21    58	 9 ;       HGA2      CG321      CG321       HGA2
   57    20    21    59	 9 ;       HGA2      CG321      CG321       HGA2
   20    21    22    60	 9 ;      CG321      CG321      CG331       HGA3
   20    21    22    61	 9 ;      CG321      CG321      CG331       HGA3
   20    21    22    62	 9 ;      CG321      CG321      CG331       HGA3
   58    21    22    60	 9 ;       HGA2      CG321      CG331       HGA3
   58    21    22    61	 9 ;       HGA2      CG321      CG331       HGA3
   58    21    22    62	 9 ;       HGA2      CG321      CG331       HGA3
   59    21    22    60	 9 ;       HGA2      CG321      CG331       HGA3
   59    21    22    61	 9 ;       HGA2      CG321      CG331       HGA3
   59    21    22    62	 9 ;       HGA2      CG321      CG331       HGA3
    1    23    24    25	 9 ;      CG311      CG321     CG2R61     CG2R61
    1    23    24    30	 9 ;      CG311      CG321     CG2R61     CG2R61
   63    23    24    25	 9 ;       HGA2      CG321     CG2R61     CG2R61
   63    23    24    30	 9 ;       HGA2      CG321     CG2R61     CG2R61
   64    23    24    25	 9 ;       HGA2      CG321     CG2R61     CG2R61
   64    23    24    30	 9 ;       HGA2      CG321     CG2R61     CG2R61
   23    24    25    26	 9 ;      CG321     CG2R61     CG2R61     CG2R66
   23    24    25    65	 9 ;      CG321     CG2R61     CG2R61      HGR62
   30    24    25    26	 9 ;     CG2R61     CG2R61     CG2R61     CG2R66
   30    24    25    65	 9 ;     CG2R61     CG2R61     CG2R61      HGR62
   23    24    30    29	 9 ;      CG321     CG2R61     CG2R61     CG2R66
   23    24    30    67	 9 ;      CG321     CG2R61     CG2R61      HGR62
   25    24    30    29	 9 ;     CG2R61     CG2R61     CG2R61     CG2R66
   25    24    30    67	 9 ;     CG2R61     CG2R61     CG2R61      HGR62
   24    25    26    27	 9 ;     CG2R61     CG2R61     CG2R66       FGR1
   24    25    26    28	 9 ;     CG2R61     CG2R61     CG2R66     CG2R61
   65    25    26    27	 9 ;      HGR62     CG2R61     CG2R66       FGR1
   65    25    26    28	 9 ;      HGR62     CG2R61     CG2R66     CG2R61
   25    26    28    29	 9 ;     CG2R61     CG2R66     CG2R61     CG2R66
   25    26    28    66	 9 ;     CG2R61     CG2R66     CG2R61      HGR62
   27    26    28    29	 9 ;       FGR1     CG2R66     CG2R61     CG2R66
   27    26    28    66	 9 ;       FGR1     CG2R66     CG2R61      HGR62
   26    28    29    30	 9 ;     CG2R66     CG2R61     CG2R66     CG2R61
   26    28    29    31	 9 ;     CG2R66     CG2R61     CG2R66       FGR1
   66    28    29    30	 9 ;      HGR62     CG2R61     CG2R66     CG2R61
   66    28    29    31	 9 ;      HGR62     CG2R61     CG2R66       FGR1
   28    29    30    24	 9 ;     CG2R61     CG2R66     CG2R61     CG2R61
   28    29    30    67	 9 ;     CG2R61     CG2R66     CG2R61      HGR62
   31    29    30    24	 9 ;       FGR1     CG2R66     CG2R61     CG2R61
   31    29    30    67	 9 ;       FGR1     CG2R66     CG2R61      HGR62
   33    32    46    47	 9 ;      CG324      CG311      OG311       HGP1
    1    32    46    47	 9 ;      CG311      CG311      OG311       HGP1
   68    32    46    47	 9 ;       HGA1      CG311      OG311       HGP1
   46    32    33    34	 9 ;      OG311      CG311      CG324      NG3P2
   46    32    33    69	 9 ;      OG311      CG311      CG324       HGA2
   46    32    33    70	 9 ;      OG311      CG311      CG324       HGA2
    1    32    33    34	 9 ;      CG311      CG311      CG324      NG3P2
    1    32    33    69	 9 ;      CG311      CG311      CG324       HGA2
    1    32    33    70	 9 ;      CG311      CG311      CG324       HGA2
   68    32    33    34	 9 ;       HGA1      CG311      CG324      NG3P2
   68    32    33    69	 9 ;       HGA1      CG311      CG324       HGA2
   68    32    33    70	 9 ;       HGA1      CG311      CG324       HGA2
   32    33    34    37	 9 ;      CG311      CG324      NG3P2      CG324
   32    33    34    36	 9 ;      CG311      CG324      NG3P2       HGP2
   32    33    34    35	 9 ;      CG311      CG324      NG3P2       HGP2
   69    33    34    37	 9 ;       HGA2      CG324      NG3P2      CG324
   69    33    34    36	 9 ;       HGA2      CG324      NG3P2       HGP2
   69    33    34    35	 9 ;       HGA2      CG324      NG3P2       HGP2
   70    33    34    37	 9 ;       HGA2      CG324      NG3P2      CG324
   70    33    34    36	 9 ;       HGA2      CG324      NG3P2       HGP2
   70    33    34    35	 9 ;       HGA2      CG324      NG3P2       HGP2
   33    34    37    38	 9 ;      CG324      NG3P2      CG324     CG2R61
   33    34    37    71	 9 ;      CG324      NG3P2      CG324       HGA2
   33    34    37    72	 9 ;      CG324      NG3P2      CG324       HGA2
   36    34    37    38	 9 ;       HGP2      NG3P2      CG324     CG2R61
   36    34    37    71	 9 ;       HGP2      NG3P2      CG324       HGA2
   36    34    37    72	 9 ;       HGP2      NG3P2      CG324       HGA2
   35    34    37    38	 9 ;       HGP2      NG3P2      CG324     CG2R61
   35    34    37    71	 9 ;       HGP2      NG3P2      CG324       HGA2
   35    34    37    72	 9 ;       HGP2      NG3P2      CG324       HGA2
   34    37    38    43	 9 ;      NG3P2      CG324     CG2R61     CG2R61
   34    37    38    39	 9 ;      NG3P2      CG324     CG2R61     CG2R61
   71    37    38    43	 9 ;       HGA2      CG324     CG2R61     CG2R61
   71    37    38    39	 9 ;       HGA2      CG324     CG2R61     CG2R61
   72    37    38    43	 9 ;       HGA2      CG324     CG2R61     CG2R61
   72    37    38    39	 9 ;       HGA2      CG324     CG2R61     CG2R61
   37    38    43    42	 9 ;      CG324     CG2R61     CG2R61     CG2R61
   37    38    43    76	 9 ;      CG324     CG2R61     CG2R61      HGR61
   39    38    43    42	 9 ;     CG2R61     CG2R61     CG2R61     CG2R61
   39    38    43    76	 9 ;     CG2R61     CG2R61     CG2R61      HGR61
   37    38    39    40	 9 ;      CG324     CG2R61     CG2R61     CG2R61
   37    38    39    73	 9 ;      CG324     CG2R61     CG2R61      HGR61
   43    38    39    40	 9 ;     CG2R61     CG2R61     CG2R61     CG2R61
   43    38    39    73	 9 ;     CG2R61     CG2R61     CG2R61      HGR61
   38    39    40    41	 9 ;     CG2R61     CG2R61     CG2R61     CG2R61
   38    39    40    44	 9 ;     CG2R61     CG2R61     CG2R61      OG301
   73    39    40    41	 9 ;      HGR61     CG2R61     CG2R61     CG2R61
   73    39    40    44	 9 ;      HGR61     CG2R61     CG2R61      OG301
   39    40    41    42	 9 ;     CG2R61     CG2R61     CG2R61     CG2R61
   39    40    41    74	 9 ;     CG2R61     CG2R61     CG2R61      HGR61
   44    40    41    42	 9 ;      OG301     CG2R61     CG2R61     CG2R61
   44    40    41    74	 9 ;      OG301     CG2R61     CG2R61      HGR61
   39    40    44    45	 9 ;     CG2R61     CG2R61      OG301      CG331
   41    40    44    45	 9 ;     CG2R61     CG2R61      OG301      CG331
   40    41    42    43	 9 ;     CG2R61     CG2R61     CG2R61     CG2R61
   40    41    42    75	 9 ;     CG2R61     CG2R61     CG2R61      HGR61
   74    41    42    43	 9 ;      HGR61     CG2R61     CG2R61     CG2R61
   74    41    42    75	 9 ;      HGR61     CG2R61     CG2R61      HGR61
   41    42    43    38	 9 ;     CG2R61     CG2R61     CG2R61     CG2R61
   41    42    43    76	 9 ;     CG2R61     CG2R61     CG2R61      HGR61
   75    42    43    38	 9 ;      HGR61     CG2R61     CG2R61     CG2R61
   75    42    43    76	 9 ;      HGR61     CG2R61     CG2R61      HGR61
   40    44    45    77	 9 ;     CG2R61      OG301      CG331       HGA3
   40    44    45    78	 9 ;     CG2R61      OG301      CG331       HGA3
   40    44    45    79	 9 ;     CG2R61      OG301      CG331       HGA3

[ dihedrals ]
;	ai	  aj	ak	  al funct			  c0			c1			  c2			c3
    3     6     2     4	 2
   13    10    15    14	 2

