GRowing Old MAkes el Chrono Sweat
   50
    1LIG     C1    1  -1.971   0.295  -1.472
    1LIG     C2    2  -1.884   0.373  -1.392
    1LIG     C3    3  -1.754   0.406  -1.435
    1LIG     C4    4  -1.704   0.363  -1.559
    1LIG     C5    5  -1.792   0.286  -1.638
    1LIG     C6    6  -1.921   0.253  -1.596
    1LIG     C7    7  -1.568   0.400  -1.613
    1LIG     C8    8  -1.481   0.287  -1.663
    1LIG     C9    9  -1.435   0.370  -1.546
    1LIG    C10   10  -1.320   0.461  -1.567
    1LIG     N1   11  -1.231   0.418  -1.663
    1LIG    C11   12  -1.125   0.488  -1.686
    1LIG    HN2   13  -1.248   0.331  -1.714
    1LIG     N2   14  -1.097   0.608  -1.623
    1LIG    C12   15  -0.978   0.687  -1.647
    1LIG    C13   16  -1.182   0.655  -1.525
    1LIG     O1   17  -1.164   0.758  -1.460
    1LIG    C14   18  -1.302   0.574  -1.498
    1LIG     N3   19  -1.040   0.438  -1.781
    1LIG     H1   20  -0.998   0.504  -1.845
    1LIG     H2   21  -1.081   0.358  -1.827
    1LIG    C15   22  -2.107   0.255  -1.428
    1LIG     N4   23  -2.123   0.127  -1.383
    1LIG    C16   24  -2.247   0.094  -1.340
    1LIG    HN3   25  -2.046   0.060  -1.381
    1LIG    C17   26  -2.352   0.184  -1.341
    1LIG     N5   27  -2.339   0.312  -1.385
    1LIG    C18   28  -2.215   0.344  -1.428
    1LIG    HN4   29  -2.417   0.378  -1.386
    1LIG     O2   30  -2.274  -0.032  -1.291
    1LIG    C19   31  -2.174  -0.083  -1.205
    1LIG     HC   32  -1.919   0.408  -1.296
    1LIG    HC1   33  -1.691   0.465  -1.371
    1LIG    HC2   34  -1.758   0.252  -1.734
    1LIG    HC3   35  -1.984   0.194  -1.661
    1LIG    HC4   36  -1.567   0.489  -1.676
    1LIG    HC5   37  -1.512   0.184  -1.648
    1LIG    HC6   38  -1.429   0.306  -1.757
    1LIG    HC7   39  -1.441   0.322  -1.448
    1LIG    HC8   40  -1.071   0.434  -1.609
    1LIG    HC9   41  -0.980   0.776  -1.584
    1LIG   HC10   42  -0.975   0.717  -1.752
    1LIG   HC11   43  -0.889   0.628  -1.623
    1LIG   HC12   44  -1.374   0.606  -1.425
    1LIG    HN1   45  -0.962   0.401  -1.728
    1LIG   HC13   46  -2.449   0.152  -1.305
    1LIG   HC14   47  -2.198   0.444  -1.463
    1LIG   HC15   48  -2.203  -0.183  -1.171
    1LIG   HC16   49  -2.079  -0.089  -1.258
    1LIG   HC17   50  -2.163  -0.017  -1.119
   0.00000   0.00000   0.00000
