; Created by cgenff_charmm2gmx.py

[ moleculetype ]
; Name			   nrexcl
LIG				 3

[ atoms ]
;	 nr		  type	resnr residue  atom   cgnr	   charge		mass  typeB    chargeB		massB
; residue	 1 LIG rtp LIG q	qsum
     1     CG2R61      1    LIG     C1      1     -0.052     12.011   ;
     2     CG2R61      1    LIG     C2      2     -0.118     12.011   ;
     3     CG2R61      1    LIG     C3      3     -0.110     12.011   ;
     4     CG2R61      1    LIG     C4      4     -0.041     12.011   ;
     5     CG2R61      1    LIG     C5      5     -0.110     12.011   ;
     6     CG2R61      1    LIG     C6      6     -0.118     12.011   ;
     7     CG3C31      1    LIG     C7      7     -0.056     12.011   ;
     8     CG3C31      1    LIG     C8      8     -0.174     12.011   ;
     9     CG3C31      1    LIG     C9      9      0.064     12.011   ;
    10     CG2D1O      1    LIG    C10     10     -0.018     12.011   ;
    11      NG311      1    LIG     N1     11     -0.532     14.007   ;
    12      CG314      1    LIG    C11     12      0.649     12.011   ;
    13     HGPAM1      1    LIG    HN2     13      0.321      1.008   ;
    14      NG2S0      1    LIG     N2     14     -0.343     14.007   ;
    15      CG331      1    LIG    C12     15     -0.238     12.011   ;
    16      CG2O1      1    LIG    C13     16      0.413     12.011   ;
    17      OG2D1      1    LIG     O1     17     -0.540     15.999   ;
    18     CG2DC1      1    LIG    C14     18      0.094     12.011   ;
    19      NG3P3      1    LIG     N3     19     -0.425     14.007   ;
    20       HGP2      1    LIG     H1     20      0.313      1.008   ;
    21       HGP2      1    LIG     H2     21      0.313      1.008   ;
    22     CG2D1O      1    LIG    C15     22      0.442     12.011   ;
    23      NG311      1    LIG     N4     23     -0.365     14.007   ;
    24     CG2D1O      1    LIG    C16     24      0.221     12.011   ;
    25     HGPAM1      1    LIG    HN3     25      0.313      1.008   ;
    26     CG2D1O      1    LIG    C17     26     -0.055     12.011   ;
    27      NG311      1    LIG     N5     27     -0.588     14.007   ;
    28     CG2D1O      1    LIG    C18     28     -0.426     12.011   ;
    29     HGPAM1      1    LIG    HN4     29      0.428      1.008   ;
    30      OG301      1    LIG     O2     30     -0.346     15.999   ;
    31      CG331      1    LIG    C19     31     -0.052     12.011   ;
    32      HGR61      1    LIG     HC     32      0.116      1.008   ;
    33      HGR61      1    LIG    HC1     33      0.116      1.008   ;
    34      HGR61      1    LIG    HC2     34      0.116      1.008   ;
    35      HGR61      1    LIG    HC3     35      0.116      1.008   ;
    36       HGA1      1    LIG    HC4     36      0.090      1.008   ;
    37       HGA2      1    LIG    HC5     37      0.090      1.008   ;
    38       HGA2      1    LIG    HC6     38      0.090      1.008   ;
    39       HGA1      1    LIG    HC7     39      0.090      1.008   ;
    40       HGA1      1    LIG    HC8     40      0.115      1.008   ;
    41       HGA3      1    LIG    HC9     41      0.090      1.008   ;
    42       HGA3      1    LIG   HC10     42      0.090      1.008   ;
    43       HGA3      1    LIG   HC11     43      0.090      1.008   ;
    44       HGA4      1    LIG   HC12     44      0.136      1.008   ;
    45       HGP2      1    LIG    HN1     45      0.313      1.008   ;
    46       HGA4      1    LIG   HC13     46      0.104      1.008   ;
    47       HGA4      1    LIG   HC14     47      0.104      1.008   ;
    48       HGA3      1    LIG   HC15     48      0.090      1.008   ;
    49       HGA3      1    LIG   HC16     49      0.090      1.008   ;
    50       HGA3      1    LIG   HC17     50      0.090      1.008   ;

[ bonds ]
;	ai	  aj funct			  c0			c1			  c2			c3
    1     6	 1 ;      CG2R61     CG2R61
    1     2	 1 ;      CG2R61     CG2R61
    1    22	 1 ;      CG2R61     CG2D1O
    2     3	 1 ;      CG2R61     CG2R61
    2    32	 1 ;      CG2R61      HGR61
    3     4	 1 ;      CG2R61     CG2R61
    3    33	 1 ;      CG2R61      HGR61
    4     7	 1 ;      CG2R61     CG3C31
    4     5	 1 ;      CG2R61     CG2R61
    5     6	 1 ;      CG2R61     CG2R61
    5    34	 1 ;      CG2R61      HGR61
    6    35	 1 ;      CG2R61      HGR61
    7     8	 1 ;      CG3C31     CG3C31
    7     9	 1 ;      CG3C31     CG3C31
    7    36	 1 ;      CG3C31       HGA1
    8     9	 1 ;      CG3C31     CG3C31
    8    37	 1 ;      CG3C31       HGA2
    8    38	 1 ;      CG3C31       HGA2
    9    10	 1 ;      CG3C31     CG2D1O
    9    39	 1 ;      CG3C31       HGA1
   10    11	 1 ;      CG2D1O      NG311
   10    18	 1 ;      CG2D1O     CG2DC1
   11    12	 1 ;       NG311      CG314
   11    13	 1 ;       NG311     HGPAM1
   12    19	 1 ;       CG314      NG3P3
   12    14	 1 ;       CG314      NG2S0
   12    40	 1 ;       CG314       HGA1
   14    15	 1 ;       NG2S0      CG331
   14    16	 1 ;       NG2S0      CG2O1
   15    41	 1 ;       CG331       HGA3
   15    42	 1 ;       CG331       HGA3
   15    43	 1 ;       CG331       HGA3
   16    17	 1 ;       CG2O1      OG2D1
   16    18	 1 ;       CG2O1     CG2DC1
   18    44	 1 ;      CG2DC1       HGA4
   19    20	 1 ;       NG3P3       HGP2
   19    21	 1 ;       NG3P3       HGP2
   19    45	 1 ;       NG3P3       HGP2
   22    23	 1 ;      CG2D1O      NG311
   22    28	 1 ;      CG2D1O     CG2D1O
   23    25	 1 ;       NG311     HGPAM1
   23    24	 1 ;       NG311     CG2D1O
   24    26	 1 ;      CG2D1O     CG2D1O
   24    30	 1 ;      CG2D1O      OG301
   26    27	 1 ;      CG2D1O      NG311
   26    46	 1 ;      CG2D1O       HGA4
   27    28	 1 ;       NG311     CG2D1O
   27    29	 1 ;       NG311     HGPAM1
   28    47	 1 ;      CG2D1O       HGA4
   30    31	 1 ;       OG301      CG331
   31    48	 1 ;       CG331       HGA3
   31    49	 1 ;       CG331       HGA3
   31    50	 1 ;       CG331       HGA3

[ pairs ]
;	ai	  aj funct			  c0			c1			  c2			c3
    1     4	 1
    1    33	 1
    1    34	 1
    1    25	 1
    1    24	 1
    1    27	 1
    1    47	 1
    2     5	 1
    2    35	 1
    2    23	 1
    2    28	 1
    2     7	 1
    3     6	 1
    3    22	 1
    3     8	 1
    3     9	 1
    3    36	 1
    3    34	 1
    4    32	 1
    4    35	 1
    4    37	 1
    4    38	 1
    4    10	 1
    4    39	 1
    5    22	 1
    5    33	 1
    5     8	 1
    5     9	 1
    5    36	 1
    6    32	 1
    6    23	 1
    6    28	 1
    6     7	 1
    7    33	 1
    7    34	 1
    7    11	 1
    7    18	 1
    8    11	 1
    8    18	 1
    9    12	 1
    9    13	 1
    9    16	 1
    9    44	 1
   10    36	 1
   10    37	 1
   10    38	 1
   10    19	 1
   10    14	 1
   10    40	 1
   10    17	 1
   11    39	 1
   11    16	 1
   11    44	 1
   11    20	 1
   11    21	 1
   11    45	 1
   11    15	 1
   12    18	 1
   12    41	 1
   12    42	 1
   12    43	 1
   12    17	 1
   13    18	 1
   13    19	 1
   13    14	 1
   13    40	 1
   14    20	 1
   14    21	 1
   14    45	 1
   14    44	 1
   15    19	 1
   15    40	 1
   15    17	 1
   15    18	 1
   16    19	 1
   16    40	 1
   16    41	 1
   16    42	 1
   16    43	 1
   17    44	 1
   18    39	 1
   20    40	 1
   21    40	 1
   22    35	 1
   22    32	 1
   22    26	 1
   22    30	 1
   22    29	 1
   23    27	 1
   23    47	 1
   23    46	 1
   23    31	 1
   24    28	 1
   24    29	 1
   24    48	 1
   24    49	 1
   24    50	 1
   25    28	 1
   25    26	 1
   25    30	 1
   26    31	 1
   26    47	 1
   27    30	 1
   28    46	 1
   29    46	 1
   29    47	 1
   30    46	 1
   32    33	 1
   34    35	 1
   36    37	 1
   36    38	 1
   36    39	 1
   37    39	 1
   38    39	 1
   40    45	 1

[ angles ]
;	ai	  aj	ak funct			c0			  c1			c2			  c3
    6     1     2	5 ;     CG2R61     CG2R61     CG2R61
    6     1    22	5 ;     CG2R61     CG2R61     CG2D1O
    2     1    22	5 ;     CG2R61     CG2R61     CG2D1O
    3     2     1	5 ;     CG2R61     CG2R61     CG2R61
    3     2    32	5 ;     CG2R61     CG2R61      HGR61
    1     2    32	5 ;     CG2R61     CG2R61      HGR61
    4     3     2	5 ;     CG2R61     CG2R61     CG2R61
    4     3    33	5 ;     CG2R61     CG2R61      HGR61
    2     3    33	5 ;     CG2R61     CG2R61      HGR61
    7     4     5	5 ;     CG3C31     CG2R61     CG2R61
    7     4     3	5 ;     CG3C31     CG2R61     CG2R61
    5     4     3	5 ;     CG2R61     CG2R61     CG2R61
    4     5     6	5 ;     CG2R61     CG2R61     CG2R61
    4     5    34	5 ;     CG2R61     CG2R61      HGR61
    6     5    34	5 ;     CG2R61     CG2R61      HGR61
    5     6     1	5 ;     CG2R61     CG2R61     CG2R61
    5     6    35	5 ;     CG2R61     CG2R61      HGR61
    1     6    35	5 ;     CG2R61     CG2R61      HGR61
    8     7     9	5 ;     CG3C31     CG3C31     CG3C31
    8     7     4	5 ;     CG3C31     CG3C31     CG2R61
    8     7    36	5 ;     CG3C31     CG3C31       HGA1
    9     7     4	5 ;     CG3C31     CG3C31     CG2R61
    9     7    36	5 ;     CG3C31     CG3C31       HGA1
    4     7    36	5 ;     CG2R61     CG3C31       HGA1
    9     8     7	5 ;     CG3C31     CG3C31     CG3C31
    9     8    37	5 ;     CG3C31     CG3C31       HGA2
    9     8    38	5 ;     CG3C31     CG3C31       HGA2
    7     8    37	5 ;     CG3C31     CG3C31       HGA2
    7     8    38	5 ;     CG3C31     CG3C31       HGA2
   37     8    38	5 ;       HGA2     CG3C31       HGA2
   10     9     8	5 ;     CG2D1O     CG3C31     CG3C31
   10     9     7	5 ;     CG2D1O     CG3C31     CG3C31
   10     9    39	5 ;     CG2D1O     CG3C31       HGA1
    8     9     7	5 ;     CG3C31     CG3C31     CG3C31
    8     9    39	5 ;     CG3C31     CG3C31       HGA1
    7     9    39	5 ;     CG3C31     CG3C31       HGA1
   11    10    18	5 ;      NG311     CG2D1O     CG2DC1
   11    10     9	5 ;      NG311     CG2D1O     CG3C31
   18    10     9	5 ;     CG2DC1     CG2D1O     CG3C31
   12    11    13	5 ;      CG314      NG311     HGPAM1
   12    11    10	5 ;      CG314      NG311     CG2D1O
   13    11    10	5 ;     HGPAM1      NG311     CG2D1O
   19    12    14	5 ;      NG3P3      CG314      NG2S0
   19    12    11	5 ;      NG3P3      CG314      NG311
   19    12    40	5 ;      NG3P3      CG314       HGA1
   14    12    11	5 ;      NG2S0      CG314      NG311
   14    12    40	5 ;      NG2S0      CG314       HGA1
   11    12    40	5 ;      NG311      CG314       HGA1
   15    14    12	5 ;      CG331      NG2S0      CG314
   15    14    16	5 ;      CG331      NG2S0      CG2O1
   12    14    16	5 ;      CG314      NG2S0      CG2O1
   14    15    41	5 ;      NG2S0      CG331       HGA3
   14    15    42	5 ;      NG2S0      CG331       HGA3
   14    15    43	5 ;      NG2S0      CG331       HGA3
   41    15    42	5 ;       HGA3      CG331       HGA3
   41    15    43	5 ;       HGA3      CG331       HGA3
   42    15    43	5 ;       HGA3      CG331       HGA3
   14    16    17	5 ;      NG2S0      CG2O1      OG2D1
   14    16    18	5 ;      NG2S0      CG2O1     CG2DC1
   17    16    18	5 ;      OG2D1      CG2O1     CG2DC1
   16    18    10	5 ;      CG2O1     CG2DC1     CG2D1O
   16    18    44	5 ;      CG2O1     CG2DC1       HGA4
   10    18    44	5 ;     CG2D1O     CG2DC1       HGA4
   20    19    21	5 ;       HGP2      NG3P3       HGP2
   20    19    12	5 ;       HGP2      NG3P3      CG314
   20    19    45	5 ;       HGP2      NG3P3       HGP2
   21    19    12	5 ;       HGP2      NG3P3      CG314
   21    19    45	5 ;       HGP2      NG3P3       HGP2
   12    19    45	5 ;      CG314      NG3P3       HGP2
    1    22    23	5 ;     CG2R61     CG2D1O      NG311
    1    22    28	5 ;     CG2R61     CG2D1O     CG2D1O
   23    22    28	5 ;      NG311     CG2D1O     CG2D1O
   22    23    25	5 ;     CG2D1O      NG311     HGPAM1
   22    23    24	5 ;     CG2D1O      NG311     CG2D1O
   25    23    24	5 ;     HGPAM1      NG311     CG2D1O
   23    24    26	5 ;      NG311     CG2D1O     CG2D1O
   23    24    30	5 ;      NG311     CG2D1O      OG301
   26    24    30	5 ;     CG2D1O     CG2D1O      OG301
   24    26    27	5 ;     CG2D1O     CG2D1O      NG311
   24    26    46	5 ;     CG2D1O     CG2D1O       HGA4
   27    26    46	5 ;      NG311     CG2D1O       HGA4
   28    27    29	5 ;     CG2D1O      NG311     HGPAM1
   28    27    26	5 ;     CG2D1O      NG311     CG2D1O
   29    27    26	5 ;     HGPAM1      NG311     CG2D1O
   22    28    27	5 ;     CG2D1O     CG2D1O      NG311
   22    28    47	5 ;     CG2D1O     CG2D1O       HGA4
   27    28    47	5 ;      NG311     CG2D1O       HGA4
   24    30    31	5 ;     CG2D1O      OG301      CG331
   30    31    48	5 ;      OG301      CG331       HGA3
   30    31    49	5 ;      OG301      CG331       HGA3
   30    31    50	5 ;      OG301      CG331       HGA3
   48    31    49	5 ;       HGA3      CG331       HGA3
   48    31    50	5 ;       HGA3      CG331       HGA3
   49    31    50	5 ;       HGA3      CG331       HGA3

[ dihedrals ]
;	ai	  aj	ak	  al funct			  c0			c1			  c2			c3			  c4			c5
    2     1     6     5	 9 ;     CG2R61     CG2R61     CG2R61     CG2R61
    2     1     6    35	 9 ;     CG2R61     CG2R61     CG2R61      HGR61
   22     1     6     5	 9 ;     CG2D1O     CG2R61     CG2R61     CG2R61
   22     1     6    35	 9 ;     CG2D1O     CG2R61     CG2R61      HGR61
    6     1     2     3	 9 ;     CG2R61     CG2R61     CG2R61     CG2R61
    6     1     2    32	 9 ;     CG2R61     CG2R61     CG2R61      HGR61
   22     1     2     3	 9 ;     CG2D1O     CG2R61     CG2R61     CG2R61
   22     1     2    32	 9 ;     CG2D1O     CG2R61     CG2R61      HGR61
    6     1    22    23	 9 ;     CG2R61     CG2R61     CG2D1O      NG311
    6     1    22    28	 9 ;     CG2R61     CG2R61     CG2D1O     CG2D1O
    2     1    22    23	 9 ;     CG2R61     CG2R61     CG2D1O      NG311
    2     1    22    28	 9 ;     CG2R61     CG2R61     CG2D1O     CG2D1O
    1     2     3     4	 9 ;     CG2R61     CG2R61     CG2R61     CG2R61
    1     2     3    33	 9 ;     CG2R61     CG2R61     CG2R61      HGR61
   32     2     3     4	 9 ;      HGR61     CG2R61     CG2R61     CG2R61
   32     2     3    33	 9 ;      HGR61     CG2R61     CG2R61      HGR61
    2     3     4     7	 9 ;     CG2R61     CG2R61     CG2R61     CG3C31
    2     3     4     5	 9 ;     CG2R61     CG2R61     CG2R61     CG2R61
   33     3     4     7	 9 ;      HGR61     CG2R61     CG2R61     CG3C31
   33     3     4     5	 9 ;      HGR61     CG2R61     CG2R61     CG2R61
    5     4     7     8	 9 ;     CG2R61     CG2R61     CG3C31     CG3C31
    5     4     7     9	 9 ;     CG2R61     CG2R61     CG3C31     CG3C31
    5     4     7    36	 9 ;     CG2R61     CG2R61     CG3C31       HGA1
    3     4     7     8	 9 ;     CG2R61     CG2R61     CG3C31     CG3C31
    3     4     7     9	 9 ;     CG2R61     CG2R61     CG3C31     CG3C31
    3     4     7    36	 9 ;     CG2R61     CG2R61     CG3C31       HGA1
    7     4     5     6	 9 ;     CG3C31     CG2R61     CG2R61     CG2R61
    7     4     5    34	 9 ;     CG3C31     CG2R61     CG2R61      HGR61
    3     4     5     6	 9 ;     CG2R61     CG2R61     CG2R61     CG2R61
    3     4     5    34	 9 ;     CG2R61     CG2R61     CG2R61      HGR61
    4     5     6     1	 9 ;     CG2R61     CG2R61     CG2R61     CG2R61
    4     5     6    35	 9 ;     CG2R61     CG2R61     CG2R61      HGR61
   34     5     6     1	 9 ;      HGR61     CG2R61     CG2R61     CG2R61
   34     5     6    35	 9 ;      HGR61     CG2R61     CG2R61      HGR61
    9     7     8    37	 9 ;     CG3C31     CG3C31     CG3C31       HGA2
    9     7     8    38	 9 ;     CG3C31     CG3C31     CG3C31       HGA2
    4     7     8     9	 9 ;     CG2R61     CG3C31     CG3C31     CG3C31
    4     7     8    37	 9 ;     CG2R61     CG3C31     CG3C31       HGA2
    4     7     8    38	 9 ;     CG2R61     CG3C31     CG3C31       HGA2
   36     7     8     9	 9 ;       HGA1     CG3C31     CG3C31     CG3C31
   36     7     8    37	 9 ;       HGA1     CG3C31     CG3C31       HGA2
   36     7     8    38	 9 ;       HGA1     CG3C31     CG3C31       HGA2
    8     7     9    10	 9 ;     CG3C31     CG3C31     CG3C31     CG2D1O
    8     7     9    39	 9 ;     CG3C31     CG3C31     CG3C31       HGA1
    4     7     9    10	 9 ;     CG2R61     CG3C31     CG3C31     CG2D1O
    4     7     9     8	 9 ;     CG2R61     CG3C31     CG3C31     CG3C31
    4     7     9    39	 9 ;     CG2R61     CG3C31     CG3C31       HGA1
   36     7     9    10	 9 ;       HGA1     CG3C31     CG3C31     CG2D1O
   36     7     9     8	 9 ;       HGA1     CG3C31     CG3C31     CG3C31
   36     7     9    39	 9 ;       HGA1     CG3C31     CG3C31       HGA1
    7     8     9    10	 9 ;     CG3C31     CG3C31     CG3C31     CG2D1O
    7     8     9    39	 9 ;     CG3C31     CG3C31     CG3C31       HGA1
   37     8     9    10	 9 ;       HGA2     CG3C31     CG3C31     CG2D1O
   37     8     9     7	 9 ;       HGA2     CG3C31     CG3C31     CG3C31
   37     8     9    39	 9 ;       HGA2     CG3C31     CG3C31       HGA1
   38     8     9    10	 9 ;       HGA2     CG3C31     CG3C31     CG2D1O
   38     8     9     7	 9 ;       HGA2     CG3C31     CG3C31     CG3C31
   38     8     9    39	 9 ;       HGA2     CG3C31     CG3C31       HGA1
    8     9    10    11	 9 ;     CG3C31     CG3C31     CG2D1O      NG311
    8     9    10    18	 9 ;     CG3C31     CG3C31     CG2D1O     CG2DC1
    7     9    10    11	 9 ;     CG3C31     CG3C31     CG2D1O      NG311
    7     9    10    18	 9 ;     CG3C31     CG3C31     CG2D1O     CG2DC1
   39     9    10    11	 9 ;       HGA1     CG3C31     CG2D1O      NG311
   39     9    10    18	 9 ;       HGA1     CG3C31     CG2D1O     CG2DC1
   18    10    11    12	 9 ;     CG2DC1     CG2D1O      NG311      CG314
   18    10    11    13	 9 ;     CG2DC1     CG2D1O      NG311     HGPAM1
    9    10    11    12	 9 ;     CG3C31     CG2D1O      NG311      CG314
    9    10    11    13	 9 ;     CG3C31     CG2D1O      NG311     HGPAM1
   11    10    18    16	 9 ;      NG311     CG2D1O     CG2DC1      CG2O1
   11    10    18    44	 9 ;      NG311     CG2D1O     CG2DC1       HGA4
    9    10    18    16	 9 ;     CG3C31     CG2D1O     CG2DC1      CG2O1
    9    10    18    44	 9 ;     CG3C31     CG2D1O     CG2DC1       HGA4
   13    11    12    19	 9 ;     HGPAM1      NG311      CG314      NG3P3
   13    11    12    14	 9 ;     HGPAM1      NG311      CG314      NG2S0
   13    11    12    40	 9 ;     HGPAM1      NG311      CG314       HGA1
   10    11    12    19	 9 ;     CG2D1O      NG311      CG314      NG3P3
   10    11    12    14	 9 ;     CG2D1O      NG311      CG314      NG2S0
   10    11    12    40	 9 ;     CG2D1O      NG311      CG314       HGA1
   14    12    19    20	 9 ;      NG2S0      CG314      NG3P3       HGP2
   14    12    19    21	 9 ;      NG2S0      CG314      NG3P3       HGP2
   14    12    19    45	 9 ;      NG2S0      CG314      NG3P3       HGP2
   11    12    19    20	 9 ;      NG311      CG314      NG3P3       HGP2
   11    12    19    21	 9 ;      NG311      CG314      NG3P3       HGP2
   11    12    19    45	 9 ;      NG311      CG314      NG3P3       HGP2
   40    12    19    20	 9 ;       HGA1      CG314      NG3P3       HGP2
   40    12    19    21	 9 ;       HGA1      CG314      NG3P3       HGP2
   40    12    19    45	 9 ;       HGA1      CG314      NG3P3       HGP2
   19    12    14    15	 9 ;      NG3P3      CG314      NG2S0      CG331
   19    12    14    16	 9 ;      NG3P3      CG314      NG2S0      CG2O1
   11    12    14    15	 9 ;      NG311      CG314      NG2S0      CG331
   11    12    14    16	 9 ;      NG311      CG314      NG2S0      CG2O1
   40    12    14    15	 9 ;       HGA1      CG314      NG2S0      CG331
   40    12    14    16	 9 ;       HGA1      CG314      NG2S0      CG2O1
   12    14    15    41	 9 ;      CG314      NG2S0      CG331       HGA3
   12    14    15    42	 9 ;      CG314      NG2S0      CG331       HGA3
   12    14    15    43	 9 ;      CG314      NG2S0      CG331       HGA3
   16    14    15    41	 9 ;      CG2O1      NG2S0      CG331       HGA3
   16    14    15    42	 9 ;      CG2O1      NG2S0      CG331       HGA3
   16    14    15    43	 9 ;      CG2O1      NG2S0      CG331       HGA3
   15    14    16    17	 9 ;      CG331      NG2S0      CG2O1      OG2D1
   15    14    16    18	 9 ;      CG331      NG2S0      CG2O1     CG2DC1
   12    14    16    17	 9 ;      CG314      NG2S0      CG2O1      OG2D1
   12    14    16    18	 9 ;      CG314      NG2S0      CG2O1     CG2DC1
   14    16    18    10	 9 ;      NG2S0      CG2O1     CG2DC1     CG2D1O
   14    16    18    44	 9 ;      NG2S0      CG2O1     CG2DC1       HGA4
   17    16    18    10	 9 ;      OG2D1      CG2O1     CG2DC1     CG2D1O
   17    16    18    44	 9 ;      OG2D1      CG2O1     CG2DC1       HGA4
    1    22    23    25	 9 ;     CG2R61     CG2D1O      NG311     HGPAM1
    1    22    23    24	 9 ;     CG2R61     CG2D1O      NG311     CG2D1O
   28    22    23    25	 9 ;     CG2D1O     CG2D1O      NG311     HGPAM1
   28    22    23    24	 9 ;     CG2D1O     CG2D1O      NG311     CG2D1O
    1    22    28    27	 9 ;     CG2R61     CG2D1O     CG2D1O      NG311
    1    22    28    47	 9 ;     CG2R61     CG2D1O     CG2D1O       HGA4
   23    22    28    27	 9 ;      NG311     CG2D1O     CG2D1O      NG311
   23    22    28    47	 9 ;      NG311     CG2D1O     CG2D1O       HGA4
   22    23    24    26	 9 ;     CG2D1O      NG311     CG2D1O     CG2D1O
   22    23    24    30	 9 ;     CG2D1O      NG311     CG2D1O      OG301
   25    23    24    26	 9 ;     HGPAM1      NG311     CG2D1O     CG2D1O
   25    23    24    30	 9 ;     HGPAM1      NG311     CG2D1O      OG301
   23    24    26    27	 9 ;      NG311     CG2D1O     CG2D1O      NG311
   23    24    26    46	 9 ;      NG311     CG2D1O     CG2D1O       HGA4
   30    24    26    27	 9 ;      OG301     CG2D1O     CG2D1O      NG311
   30    24    26    46	 9 ;      OG301     CG2D1O     CG2D1O       HGA4
   23    24    30    31	 9 ;      NG311     CG2D1O      OG301      CG331
   26    24    30    31	 9 ;     CG2D1O     CG2D1O      OG301      CG331
   24    26    27    28	 9 ;     CG2D1O     CG2D1O      NG311     CG2D1O
   24    26    27    29	 9 ;     CG2D1O     CG2D1O      NG311     HGPAM1
   46    26    27    28	 9 ;       HGA4     CG2D1O      NG311     CG2D1O
   46    26    27    29	 9 ;       HGA4     CG2D1O      NG311     HGPAM1
   29    27    28    22	 9 ;     HGPAM1      NG311     CG2D1O     CG2D1O
   29    27    28    47	 9 ;     HGPAM1      NG311     CG2D1O       HGA4
   26    27    28    22	 9 ;     CG2D1O      NG311     CG2D1O     CG2D1O
   26    27    28    47	 9 ;     CG2D1O      NG311     CG2D1O       HGA4
   24    30    31    48	 9 ;     CG2D1O      OG301      CG331       HGA3
   24    30    31    49	 9 ;     CG2D1O      OG301      CG331       HGA3
   24    30    31    50	 9 ;     CG2D1O      OG301      CG331       HGA3

[ dihedrals ]
;	ai	  aj	ak	  al funct			  c0			c1			  c2			c3
   10    18     9    11	 2
   16    18    14    17	 2
   22    28     1    23	 2
   24    26    23    30	 2
   26    24    27    46	 2
   28    22    27    47	 2

