GROwing Monsters And Cloning Shrimps
   75
    1LIG     N1    1  -1.804   0.581  -1.378
    1LIG     H1    2  -1.810   0.682  -1.399
    1LIG     H2    3  -1.718   0.571  -1.322
    1LIG     C1    4  -1.918   0.552  -1.273
    1LIG     C2    5  -2.061   0.607  -1.309
    1LIG     C3    6  -2.187   0.509  -1.282
    1LIG     N2    7  -2.311   0.533  -1.361
    1LIG     C4    8  -2.410   0.617  -1.308
    1LIG     O1    9  -2.386   0.695  -1.216
    1LIG     C5   10  -2.549   0.605  -1.369
    1LIG     H3   11  -2.346   0.458  -1.420
    1LIG     C6   12  -2.148   0.357  -1.299
    1LIG     C7   13  -2.210   0.276  -1.187
    1LIG     C8   14  -2.197   0.324  -1.056
    1LIG     C9   15  -2.214   0.236  -0.950
    1LIG     F1   16  -2.189   0.278  -0.826
    1LIG    C10   17  -2.247   0.103  -0.971
    1LIG    C11   18  -2.270   0.060  -1.101
    1LIG    C12   19  -2.254   0.146  -1.210
    1LIG     F2   20  -2.296  -0.070  -1.124
    1LIG     O2   21  -2.082   0.735  -1.249
    1LIG     H4   22  -2.126   0.721  -1.163
    1LIG    C13   23  -1.764   0.508  -1.513
    1LIG    C14   24  -1.808   0.595  -1.633
    1LIG    C15   25  -1.781   0.526  -1.769
    1LIG    C16   26  -1.851   0.390  -1.780
    1LIG    C17   27  -1.819   0.301  -1.660
    1LIG    C18   28  -1.843   0.373  -1.525
    1LIG    C19   29  -1.606   0.483  -1.515
    1LIG    C20   30  -1.541   0.377  -1.442
    1LIG    C21   31  -1.400   0.357  -1.434
    1LIG    C22   32  -1.320   0.450  -1.503
    1LIG    C23   33  -1.379   0.554  -1.577
    1LIG    C24   34  -1.519   0.569  -1.585
    1LIG     N3   35  -1.336   0.243  -1.368
    1LIG    C25   36  -1.301   0.121  -1.444
    1LIG    C26   37  -1.305  -0.009  -1.363
    1LIG    C27   38  -1.220   0.006  -1.239
    1LIG    C28   39  -1.271   0.124  -1.160
    1LIG    C29   40  -1.282   0.254  -1.237
    1LIG     O3   41  -1.262   0.359  -1.177
    1LIG    HC2   42  -1.926   0.444  -1.261
    1LIG    HC3   43  -1.889   0.595  -1.178
    1LIG     HC   44  -2.060   0.624  -1.417
    1LIG    HC1   45  -2.214   0.522  -1.177
    1LIG    HC4   46  -2.040   0.347  -1.296
    1LIG    HC5   47  -2.186   0.321  -1.395
    1LIG    HC6   48  -2.175   0.428  -1.038
    1LIG    HC7   49  -2.255   0.034  -0.888
    1LIG    HC8   50  -2.277   0.112  -1.310
    1LIG    HC9   51  -1.753   0.689  -1.631
    1LIG   HC10   52  -1.915   0.615  -1.625
    1LIG   HC11   53  -1.816   0.590  -1.849
    1LIG   HC12   54  -1.673   0.511  -1.780
    1LIG   HC13   55  -1.958   0.407  -1.784
    1LIG   HC14   56  -1.818   0.340  -1.871
    1LIG   HC15   57  -1.715   0.271  -1.666
    1LIG   HC16   58  -1.883   0.213  -1.664
    1LIG   HC17   59  -1.949   0.395  -1.515
    1LIG   HC18   60  -1.813   0.307  -1.444
    1LIG   HC19   61  -1.604   0.308  -1.388
    1LIG   HC20   62  -1.213   0.442  -1.498
    1LIG   HC21   63  -1.316   0.624  -1.629
    1LIG   HC22   64  -1.560   0.648  -1.646
    1LIG   HC23   65  -1.372   0.111  -1.526
    1LIG   HC24   66  -1.202   0.133  -1.486
    1LIG   HC25   67  -1.407  -0.031  -1.335
    1LIG   HC26   68  -1.265  -0.090  -1.424
    1LIG   HC27   69  -1.116   0.023  -1.267
    1LIG   HC28   70  -1.227  -0.084  -1.179
    1LIG   HC29   71  -1.370   0.099  -1.121
    1LIG   HC30   72  -1.204   0.140  -1.075
    1LIG   HC31   73  -2.616   0.675  -1.320
    1LIG   HC32   74  -2.586   0.504  -1.356
    1LIG   HC33   75  -2.544   0.629  -1.475
   0.00000   0.00000   0.00000
