Getting the Right Output Means no Artefacts in Calculating Stuff
   47
    1LIG     C1    1  -1.285   0.355  -1.551
    1LIG     N1    2  -1.203   0.243  -1.609
    1LIG    HN1    3  -1.166   0.234  -1.704
    1LIG     C2    4  -1.190   0.159  -1.512
    1LIG     C3    5  -1.112   0.033  -1.515
    1LIG     C4    6  -1.261   0.204  -1.389
    1LIG     N2    7  -1.316   0.318  -1.408
    1LIG    HN2    8  -1.369   0.373  -1.340
    1LIG     N3    9  -1.267   0.133  -1.273
    1LIG     H1   10  -1.299   0.189  -1.194
    1LIG     H2   11  -1.191   0.071  -1.250
    1LIG     C5   12  -1.417   0.369  -1.628
    1LIG     C6   13  -1.541   0.355  -1.562
    1LIG     C7   14  -1.665   0.353  -1.629
    1LIG     C8   15  -1.661   0.371  -1.768
    1LIG     C9   16  -1.541   0.391  -1.836
    1LIG    C10   17  -1.420   0.390  -1.767
    1LIG    C11   18  -1.791   0.331  -1.556
    1LIG    C12   19  -1.814   0.383  -1.429
    1LIG     N4   20  -1.928   0.367  -1.356
    1LIG    C13   21  -2.026   0.294  -1.413
    1LIG    HN3   22  -1.939   0.408  -1.263
    1LIG    C14   23  -2.015   0.236  -1.538
    1LIG    C15   24  -1.897   0.255  -1.610
    1LIG    C16   25  -1.202   0.484  -1.554
    1LIG    C17   26  -1.105   0.507  -1.653
    1LIG    C18   27  -1.038   0.629  -1.663
    1LIG    C19   28  -1.065   0.731  -1.571
    1LIG    C20   29  -1.158   0.709  -1.469
    1LIG    C21   30  -1.224   0.587  -1.460
    1LIG    HC1   31  -1.069   0.020  -1.614
    1LIG    HC2   32  -1.178  -0.051  -1.493
    1LIG    HC3   33  -1.032   0.038  -1.441
    1LIG     HC   34  -1.541   0.345  -1.454
    1LIG    HC4   35  -1.754   0.370  -1.824
    1LIG    HC5   36  -1.541   0.407  -1.943
    1LIG    HC6   37  -1.327   0.405  -1.821
    1LIG    HC7   38  -1.735   0.441  -1.384
    1LIG    HC8   39  -2.118   0.279  -1.358
    1LIG    HC9   40  -2.095   0.177  -1.579
    1LIG   HC10   41  -1.887   0.211  -1.708
    1LIG   HC11   42  -1.083   0.428  -1.724
    1LIG   HC12   43  -0.965   0.645  -1.741
    1LIG   HC13   44  -1.015   0.826  -1.580
    1LIG   HC14   45  -1.177   0.787  -1.397
    1LIG   HC15   46  -1.294   0.571  -1.379
    1LIG    H22   47  -1.773   0.292  -1.384
   0.00000   0.00000   0.00000
