; Created by cgenff_charmm2gmx.py

[ moleculetype ]
; Name			   nrexcl
LIG				 3

[ atoms ]
;	 nr		  type	resnr residue  atom   cgnr	   charge		mass  typeB    chargeB		massB
; residue	 1 LIG rtp LIG q	qsum
     1      CG311      1    LIG     C1      1      0.018     12.011   ;
     2      CG321      1    LIG     C2      2     -0.134     12.011   ;
     3     CG2R61      1    LIG     C3      3     -0.019     12.011   ;
     4     CG2R61      1    LIG     C4      4     -0.123     12.011   ;
     5     CG2R61      1    LIG     C5      5     -0.112     12.011   ;
     6     CG2R61      1    LIG     C6      6     -0.116     12.011   ;
     7     CG2R61      1    LIG     C7      7     -0.112     12.011   ;
     8     CG2R61      1    LIG     C8      8     -0.123     12.011   ;
     9      NG2S1      1    LIG     N1      9     -0.402     14.007   ;
    10      CG2O1      1    LIG     C9     10      0.469     12.011   ;
    11      OG2D1      1    LIG     O1     11     -0.508     15.999   ;
    12       HGP1      1    LIG     H1     12      0.269      1.008   ;
    13      CG311      1    LIG    C10     13      0.077     12.011   ;
    14      CG321      1    LIG    C11     14     -0.210     12.011   ;
    15      CG311      1    LIG    C12     15      0.024     12.011   ;
    16      CG321      1    LIG    C13     16     -0.188     12.011   ;
    17      CG321      1    LIG    C14     17     -0.216     12.011   ;
    18      CG321      1    LIG    C15     18     -0.231     12.011   ;
    19      CG311      1    LIG    C16     19     -0.081     12.011   ;
    20      CG311      1    LIG    C17     20     -0.054     12.011   ;
    21      CG331      1    LIG    C18     21     -0.261     12.011   ;
    22      CG331      1    LIG    C19     22     -0.261     12.011   ;
    23      NG2S1      1    LIG     N2     23     -0.340     14.007   ;
    24      CG2O1      1    LIG    C20     24      0.471     12.011   ;
    25      OG2D1      1    LIG     O2     25     -0.509     15.999   ;
    26      CG331      1    LIG    C21     26     -0.270     12.011   ;
    27       HGP1      1    LIG     H2     27      0.214      1.008   ;
    28      CG311      1    LIG    C22     28      0.100     12.011   ;
    29      OG311      1    LIG     O3     29     -0.648     15.999   ;
    30       HGP1      1    LIG     H3     30      0.421      1.008   ;
    31      CG321      1    LIG    C23     31     -0.187     12.011   ;
    32      CG311      1    LIG    C24     32     -0.033     12.011   ;
    33      CG331      1    LIG    C25     33     -0.266     12.011   ;
    34      CG2O1      1    LIG    C26     34      0.492     12.011   ;
    35      OG2D1      1    LIG     O4     35     -0.514     15.999   ;
    36      NG2S1      1    LIG     N3     36     -0.457     14.007   ;
    37       HGP1      1    LIG     H4     37      0.305      1.008   ;
    38      CG321      1    LIG    C27     38     -0.033     12.011   ;
    39      CG321      1    LIG    C28     39     -0.184     12.011   ;
    40      CG321      1    LIG    C29     40     -0.178     12.011   ;
    41      CG331      1    LIG    C30     41     -0.270     12.011   ;
    42       HGA1      1    LIG     HC     42      0.090      1.008   ;
    43       HGA2      1    LIG    HC2     43      0.090      1.008   ;
    44       HGA2      1    LIG    HC3     44      0.090      1.008   ;
    45      HGR61      1    LIG    HC1     45      0.116      1.008   ;
    46      HGR61      1    LIG    HC4     46      0.116      1.008   ;
    47      HGR61      1    LIG    HC5     47      0.116      1.008   ;
    48      HGR61      1    LIG    HC6     48      0.116      1.008   ;
    49      HGR61      1    LIG    HC7     49      0.116      1.008   ;
    50       HGA1      1    LIG    HC8     50      0.090      1.008   ;
    51       HGA2      1    LIG    HC9     51      0.090      1.008   ;
    52       HGA2      1    LIG   HC10     52      0.090      1.008   ;
    53       HGA1      1    LIG   HC11     53      0.090      1.008   ;
    54       HGA2      1    LIG   HC12     54      0.090      1.008   ;
    55       HGA2      1    LIG   HC13     55      0.090      1.008   ;
    56       HGA2      1    LIG   HC14     56      0.090      1.008   ;
    57       HGA2      1    LIG   HC15     57      0.090      1.008   ;
    58       HGA2      1    LIG   HC16     58      0.090      1.008   ;
    59       HGA2      1    LIG   HC17     59      0.090      1.008   ;
    60       HGA1      1    LIG   HC18     60      0.090      1.008   ;
    61       HGA1      1    LIG   HC19     61      0.090      1.008   ;
    62       HGA3      1    LIG   HC20     62      0.090      1.008   ;
    63       HGA3      1    LIG   HC21     63      0.090      1.008   ;
    64       HGA3      1    LIG   HC22     64      0.090      1.008   ;
    65       HGA3      1    LIG   HC23     65      0.090      1.008   ;
    66       HGA3      1    LIG   HC24     66      0.090      1.008   ;
    67       HGA3      1    LIG   HC25     67      0.090      1.008   ;
    68       HGA3      1    LIG   HC26     68      0.090      1.008   ;
    69       HGA3      1    LIG   HC27     69      0.090      1.008   ;
    70       HGA3      1    LIG   HC28     70      0.090      1.008   ;
    71       HGA1      1    LIG   HC29     71      0.090      1.008   ;
    72       HGA2      1    LIG   HC30     72      0.090      1.008   ;
    73       HGA2      1    LIG   HC31     73      0.090      1.008   ;
    74       HGA1      1    LIG   HC32     74      0.090      1.008   ;
    75       HGA3      1    LIG   HC33     75      0.090      1.008   ;
    76       HGA3      1    LIG   HC34     76      0.090      1.008   ;
    77       HGA3      1    LIG   HC35     77      0.090      1.008   ;
    78       HGA2      1    LIG   HC36     78      0.090      1.008   ;
    79       HGA2      1    LIG   HC37     79      0.090      1.008   ;
    80       HGA2      1    LIG   HC38     80      0.090      1.008   ;
    81       HGA2      1    LIG   HC39     81      0.090      1.008   ;
    82       HGA2      1    LIG   HC40     82      0.090      1.008   ;
    83       HGA2      1    LIG   HC41     83      0.090      1.008   ;
    84       HGA3      1    LIG   HC42     84      0.090      1.008   ;
    85       HGA3      1    LIG   HC43     85      0.090      1.008   ;
    86       HGA3      1    LIG   HC44     86      0.090      1.008   ;

[ bonds ]
;	ai	  aj funct			  c0			c1			  c2			c3
    1    28	 1 ;       CG311      CG311
    1     9	 1 ;       CG311      NG2S1
    1     2	 1 ;       CG311      CG321
    1    42	 1 ;       CG311       HGA1
    2     3	 1 ;       CG321     CG2R61
    2    43	 1 ;       CG321       HGA2
    2    44	 1 ;       CG321       HGA2
    3     4	 1 ;      CG2R61     CG2R61
    3     8	 1 ;      CG2R61     CG2R61
    4     5	 1 ;      CG2R61     CG2R61
    4    45	 1 ;      CG2R61      HGR61
    5     6	 1 ;      CG2R61     CG2R61
    5    46	 1 ;      CG2R61      HGR61
    6     7	 1 ;      CG2R61     CG2R61
    6    47	 1 ;      CG2R61      HGR61
    7     8	 1 ;      CG2R61     CG2R61
    7    48	 1 ;      CG2R61      HGR61
    8    49	 1 ;      CG2R61      HGR61
    9    12	 1 ;       NG2S1       HGP1
    9    10	 1 ;       NG2S1      CG2O1
   10    11	 1 ;       CG2O1      OG2D1
   10    13	 1 ;       CG2O1      CG311
   13    18	 1 ;       CG311      CG321
   13    14	 1 ;       CG311      CG321
   13    50	 1 ;       CG311       HGA1
   14    15	 1 ;       CG321      CG311
   14    51	 1 ;       CG321       HGA2
   14    52	 1 ;       CG321       HGA2
   15    16	 1 ;       CG311      CG321
   15    19	 1 ;       CG311      CG311
   15    53	 1 ;       CG311       HGA1
   16    17	 1 ;       CG321      CG321
   16    54	 1 ;       CG321       HGA2
   16    55	 1 ;       CG321       HGA2
   17    18	 1 ;       CG321      CG321
   17    56	 1 ;       CG321       HGA2
   17    57	 1 ;       CG321       HGA2
   18    58	 1 ;       CG321       HGA2
   18    59	 1 ;       CG321       HGA2
   19    23	 1 ;       CG311      NG2S1
   19    20	 1 ;       CG311      CG311
   19    60	 1 ;       CG311       HGA1
   20    21	 1 ;       CG311      CG331
   20    22	 1 ;       CG311      CG331
   20    61	 1 ;       CG311       HGA1
   21    62	 1 ;       CG331       HGA3
   21    63	 1 ;       CG331       HGA3
   21    64	 1 ;       CG331       HGA3
   22    65	 1 ;       CG331       HGA3
   22    66	 1 ;       CG331       HGA3
   22    67	 1 ;       CG331       HGA3
   23    24	 1 ;       NG2S1      CG2O1
   23    27	 1 ;       NG2S1       HGP1
   24    26	 1 ;       CG2O1      CG331
   24    25	 1 ;       CG2O1      OG2D1
   26    68	 1 ;       CG331       HGA3
   26    69	 1 ;       CG331       HGA3
   26    70	 1 ;       CG331       HGA3
   28    31	 1 ;       CG311      CG321
   28    29	 1 ;       CG311      OG311
   28    71	 1 ;       CG311       HGA1
   29    30	 1 ;       OG311       HGP1
   31    32	 1 ;       CG321      CG311
   31    72	 1 ;       CG321       HGA2
   31    73	 1 ;       CG321       HGA2
   32    33	 1 ;       CG311      CG331
   32    34	 1 ;       CG311      CG2O1
   32    74	 1 ;       CG311       HGA1
   33    75	 1 ;       CG331       HGA3
   33    76	 1 ;       CG331       HGA3
   33    77	 1 ;       CG331       HGA3
   34    36	 1 ;       CG2O1      NG2S1
   34    35	 1 ;       CG2O1      OG2D1
   36    37	 1 ;       NG2S1       HGP1
   36    38	 1 ;       NG2S1      CG321
   38    39	 1 ;       CG321      CG321
   38    78	 1 ;       CG321       HGA2
   38    79	 1 ;       CG321       HGA2
   39    40	 1 ;       CG321      CG321
   39    80	 1 ;       CG321       HGA2
   39    81	 1 ;       CG321       HGA2
   40    41	 1 ;       CG321      CG331
   40    82	 1 ;       CG321       HGA2
   40    83	 1 ;       CG321       HGA2
   41    84	 1 ;       CG331       HGA3
   41    85	 1 ;       CG331       HGA3
   41    86	 1 ;       CG331       HGA3

[ pairs ]
;	ai	  aj funct			  c0			c1			  c2			c3
    1     4	 1
    1     8	 1
    1    11	 1
    1    13	 1
    1    32	 1
    1    72	 1
    1    73	 1
    1    30	 1
    2    31	 1
    2    29	 1
    2    71	 1
    2    12	 1
    2    10	 1
    2     5	 1
    2    45	 1
    2     7	 1
    2    49	 1
    3    28	 1
    3     9	 1
    3    42	 1
    3     6	 1
    3    46	 1
    3    48	 1
    4    43	 1
    4    44	 1
    4     7	 1
    4    49	 1
    4    47	 1
    5     8	 1
    5    48	 1
    6    45	 1
    6    49	 1
    7    46	 1
    8    43	 1
    8    44	 1
    8    45	 1
    8    47	 1
    9    31	 1
    9    29	 1
    9    71	 1
    9    43	 1
    9    44	 1
    9    18	 1
    9    14	 1
    9    50	 1
   10    28	 1
   10    42	 1
   10    17	 1
   10    58	 1
   10    59	 1
   10    15	 1
   10    51	 1
   10    52	 1
   11    12	 1
   11    18	 1
   11    14	 1
   11    50	 1
   12    28	 1
   12    42	 1
   12    13	 1
   13    16	 1
   13    19	 1
   13    53	 1
   13    56	 1
   13    57	 1
   14    17	 1
   14    58	 1
   14    59	 1
   14    54	 1
   14    55	 1
   14    23	 1
   14    20	 1
   14    60	 1
   15    18	 1
   15    50	 1
   15    56	 1
   15    57	 1
   15    24	 1
   15    27	 1
   15    21	 1
   15    22	 1
   15    61	 1
   16    51	 1
   16    52	 1
   16    23	 1
   16    20	 1
   16    60	 1
   16    58	 1
   16    59	 1
   17    50	 1
   17    19	 1
   17    53	 1
   18    51	 1
   18    52	 1
   18    54	 1
   18    55	 1
   19    51	 1
   19    52	 1
   19    54	 1
   19    55	 1
   19    62	 1
   19    63	 1
   19    64	 1
   19    65	 1
   19    66	 1
   19    67	 1
   19    26	 1
   19    25	 1
   20    53	 1
   20    24	 1
   20    27	 1
   21    23	 1
   21    60	 1
   21    65	 1
   21    66	 1
   21    67	 1
   22    23	 1
   22    60	 1
   22    62	 1
   22    63	 1
   22    64	 1
   23    53	 1
   23    61	 1
   23    68	 1
   23    69	 1
   23    70	 1
   24    60	 1
   25    27	 1
   25    68	 1
   25    69	 1
   25    70	 1
   26    27	 1
   27    60	 1
   28    43	 1
   28    44	 1
   28    33	 1
   28    34	 1
   28    74	 1
   29    42	 1
   29    32	 1
   29    72	 1
   29    73	 1
   30    31	 1
   30    71	 1
   31    42	 1
   31    75	 1
   31    76	 1
   31    77	 1
   31    36	 1
   31    35	 1
   32    71	 1
   32    37	 1
   32    38	 1
   33    72	 1
   33    73	 1
   33    36	 1
   33    35	 1
   34    72	 1
   34    73	 1
   34    75	 1
   34    76	 1
   34    77	 1
   34    39	 1
   34    78	 1
   34    79	 1
   35    74	 1
   35    37	 1
   35    38	 1
   36    74	 1
   36    40	 1
   36    80	 1
   36    81	 1
   37    39	 1
   37    78	 1
   37    79	 1
   38    41	 1
   38    82	 1
   38    83	 1
   39    84	 1
   39    85	 1
   39    86	 1
   40    78	 1
   40    79	 1
   41    80	 1
   41    81	 1
   42    71	 1
   42    43	 1
   42    44	 1
   45    46	 1
   46    47	 1
   47    48	 1
   48    49	 1
   50    58	 1
   50    59	 1
   50    51	 1
   50    52	 1
   51    53	 1
   52    53	 1
   53    54	 1
   53    55	 1
   53    60	 1
   54    56	 1
   54    57	 1
   55    56	 1
   55    57	 1
   56    58	 1
   56    59	 1
   57    58	 1
   57    59	 1
   60    61	 1
   61    62	 1
   61    63	 1
   61    64	 1
   61    65	 1
   61    66	 1
   61    67	 1
   71    72	 1
   71    73	 1
   72    74	 1
   73    74	 1
   74    75	 1
   74    76	 1
   74    77	 1
   78    80	 1
   78    81	 1
   79    80	 1
   79    81	 1
   80    82	 1
   80    83	 1
   81    82	 1
   81    83	 1
   82    84	 1
   82    85	 1
   82    86	 1
   83    84	 1
   83    85	 1
   83    86	 1

[ angles ]
;	ai	  aj	ak funct			c0			  c1			c2			  c3
   28     1     9	5 ;      CG311      CG311      NG2S1
   28     1     2	5 ;      CG311      CG311      CG321
   28     1    42	5 ;      CG311      CG311       HGA1
    9     1     2	5 ;      NG2S1      CG311      CG321
    9     1    42	5 ;      NG2S1      CG311       HGA1
    2     1    42	5 ;      CG321      CG311       HGA1
    1     2     3	5 ;      CG311      CG321     CG2R61
    1     2    43	5 ;      CG311      CG321       HGA2
    1     2    44	5 ;      CG311      CG321       HGA2
    3     2    43	5 ;     CG2R61      CG321       HGA2
    3     2    44	5 ;     CG2R61      CG321       HGA2
   43     2    44	5 ;       HGA2      CG321       HGA2
    4     3     2	5 ;     CG2R61     CG2R61      CG321
    4     3     8	5 ;     CG2R61     CG2R61     CG2R61
    2     3     8	5 ;      CG321     CG2R61     CG2R61
    5     4     3	5 ;     CG2R61     CG2R61     CG2R61
    5     4    45	5 ;     CG2R61     CG2R61      HGR61
    3     4    45	5 ;     CG2R61     CG2R61      HGR61
    4     5     6	5 ;     CG2R61     CG2R61     CG2R61
    4     5    46	5 ;     CG2R61     CG2R61      HGR61
    6     5    46	5 ;     CG2R61     CG2R61      HGR61
    5     6     7	5 ;     CG2R61     CG2R61     CG2R61
    5     6    47	5 ;     CG2R61     CG2R61      HGR61
    7     6    47	5 ;     CG2R61     CG2R61      HGR61
    6     7     8	5 ;     CG2R61     CG2R61     CG2R61
    6     7    48	5 ;     CG2R61     CG2R61      HGR61
    8     7    48	5 ;     CG2R61     CG2R61      HGR61
    3     8     7	5 ;     CG2R61     CG2R61     CG2R61
    3     8    49	5 ;     CG2R61     CG2R61      HGR61
    7     8    49	5 ;     CG2R61     CG2R61      HGR61
    1     9    12	5 ;      CG311      NG2S1       HGP1
    1     9    10	5 ;      CG311      NG2S1      CG2O1
   12     9    10	5 ;       HGP1      NG2S1      CG2O1
   11    10     9	5 ;      OG2D1      CG2O1      NG2S1
   11    10    13	5 ;      OG2D1      CG2O1      CG311
    9    10    13	5 ;      NG2S1      CG2O1      CG311
   10    13    18	5 ;      CG2O1      CG311      CG321
   10    13    14	5 ;      CG2O1      CG311      CG321
   10    13    50	5 ;      CG2O1      CG311       HGA1
   18    13    14	5 ;      CG321      CG311      CG321
   18    13    50	5 ;      CG321      CG311       HGA1
   14    13    50	5 ;      CG321      CG311       HGA1
   13    14    15	5 ;      CG311      CG321      CG311
   13    14    51	5 ;      CG311      CG321       HGA2
   13    14    52	5 ;      CG311      CG321       HGA2
   15    14    51	5 ;      CG311      CG321       HGA2
   15    14    52	5 ;      CG311      CG321       HGA2
   51    14    52	5 ;       HGA2      CG321       HGA2
   14    15    16	5 ;      CG321      CG311      CG321
   14    15    19	5 ;      CG321      CG311      CG311
   14    15    53	5 ;      CG321      CG311       HGA1
   16    15    19	5 ;      CG321      CG311      CG311
   16    15    53	5 ;      CG321      CG311       HGA1
   19    15    53	5 ;      CG311      CG311       HGA1
   17    16    15	5 ;      CG321      CG321      CG311
   17    16    54	5 ;      CG321      CG321       HGA2
   17    16    55	5 ;      CG321      CG321       HGA2
   15    16    54	5 ;      CG311      CG321       HGA2
   15    16    55	5 ;      CG311      CG321       HGA2
   54    16    55	5 ;       HGA2      CG321       HGA2
   18    17    16	5 ;      CG321      CG321      CG321
   18    17    56	5 ;      CG321      CG321       HGA2
   18    17    57	5 ;      CG321      CG321       HGA2
   16    17    56	5 ;      CG321      CG321       HGA2
   16    17    57	5 ;      CG321      CG321       HGA2
   56    17    57	5 ;       HGA2      CG321       HGA2
   13    18    17	5 ;      CG311      CG321      CG321
   13    18    58	5 ;      CG311      CG321       HGA2
   13    18    59	5 ;      CG311      CG321       HGA2
   17    18    58	5 ;      CG321      CG321       HGA2
   17    18    59	5 ;      CG321      CG321       HGA2
   58    18    59	5 ;       HGA2      CG321       HGA2
   23    19    15	5 ;      NG2S1      CG311      CG311
   23    19    20	5 ;      NG2S1      CG311      CG311
   23    19    60	5 ;      NG2S1      CG311       HGA1
   15    19    20	5 ;      CG311      CG311      CG311
   15    19    60	5 ;      CG311      CG311       HGA1
   20    19    60	5 ;      CG311      CG311       HGA1
   19    20    21	5 ;      CG311      CG311      CG331
   19    20    22	5 ;      CG311      CG311      CG331
   19    20    61	5 ;      CG311      CG311       HGA1
   21    20    22	5 ;      CG331      CG311      CG331
   21    20    61	5 ;      CG331      CG311       HGA1
   22    20    61	5 ;      CG331      CG311       HGA1
   20    21    62	5 ;      CG311      CG331       HGA3
   20    21    63	5 ;      CG311      CG331       HGA3
   20    21    64	5 ;      CG311      CG331       HGA3
   62    21    63	5 ;       HGA3      CG331       HGA3
   62    21    64	5 ;       HGA3      CG331       HGA3
   63    21    64	5 ;       HGA3      CG331       HGA3
   20    22    65	5 ;      CG311      CG331       HGA3
   20    22    66	5 ;      CG311      CG331       HGA3
   20    22    67	5 ;      CG311      CG331       HGA3
   65    22    66	5 ;       HGA3      CG331       HGA3
   65    22    67	5 ;       HGA3      CG331       HGA3
   66    22    67	5 ;       HGA3      CG331       HGA3
   24    23    27	5 ;      CG2O1      NG2S1       HGP1
   24    23    19	5 ;      CG2O1      NG2S1      CG311
   27    23    19	5 ;       HGP1      NG2S1      CG311
   26    24    25	5 ;      CG331      CG2O1      OG2D1
   26    24    23	5 ;      CG331      CG2O1      NG2S1
   25    24    23	5 ;      OG2D1      CG2O1      NG2S1
   24    26    68	5 ;      CG2O1      CG331       HGA3
   24    26    69	5 ;      CG2O1      CG331       HGA3
   24    26    70	5 ;      CG2O1      CG331       HGA3
   68    26    69	5 ;       HGA3      CG331       HGA3
   68    26    70	5 ;       HGA3      CG331       HGA3
   69    26    70	5 ;       HGA3      CG331       HGA3
   31    28     1	5 ;      CG321      CG311      CG311
   31    28    29	5 ;      CG321      CG311      OG311
   31    28    71	5 ;      CG321      CG311       HGA1
    1    28    29	5 ;      CG311      CG311      OG311
    1    28    71	5 ;      CG311      CG311       HGA1
   29    28    71	5 ;      OG311      CG311       HGA1
   28    29    30	5 ;      CG311      OG311       HGP1
   32    31    28	5 ;      CG311      CG321      CG311
   32    31    72	5 ;      CG311      CG321       HGA2
   32    31    73	5 ;      CG311      CG321       HGA2
   28    31    72	5 ;      CG311      CG321       HGA2
   28    31    73	5 ;      CG311      CG321       HGA2
   72    31    73	5 ;       HGA2      CG321       HGA2
   33    32    34	5 ;      CG331      CG311      CG2O1
   33    32    31	5 ;      CG331      CG311      CG321
   33    32    74	5 ;      CG331      CG311       HGA1
   34    32    31	5 ;      CG2O1      CG311      CG321
   34    32    74	5 ;      CG2O1      CG311       HGA1
   31    32    74	5 ;      CG321      CG311       HGA1
   32    33    75	5 ;      CG311      CG331       HGA3
   32    33    76	5 ;      CG311      CG331       HGA3
   32    33    77	5 ;      CG311      CG331       HGA3
   75    33    76	5 ;       HGA3      CG331       HGA3
   75    33    77	5 ;       HGA3      CG331       HGA3
   76    33    77	5 ;       HGA3      CG331       HGA3
   36    34    32	5 ;      NG2S1      CG2O1      CG311
   36    34    35	5 ;      NG2S1      CG2O1      OG2D1
   32    34    35	5 ;      CG311      CG2O1      OG2D1
   37    36    38	5 ;       HGP1      NG2S1      CG321
   37    36    34	5 ;       HGP1      NG2S1      CG2O1
   38    36    34	5 ;      CG321      NG2S1      CG2O1
   36    38    39	5 ;      NG2S1      CG321      CG321
   36    38    78	5 ;      NG2S1      CG321       HGA2
   36    38    79	5 ;      NG2S1      CG321       HGA2
   39    38    78	5 ;      CG321      CG321       HGA2
   39    38    79	5 ;      CG321      CG321       HGA2
   78    38    79	5 ;       HGA2      CG321       HGA2
   38    39    40	5 ;      CG321      CG321      CG321
   38    39    80	5 ;      CG321      CG321       HGA2
   38    39    81	5 ;      CG321      CG321       HGA2
   40    39    80	5 ;      CG321      CG321       HGA2
   40    39    81	5 ;      CG321      CG321       HGA2
   80    39    81	5 ;       HGA2      CG321       HGA2
   39    40    41	5 ;      CG321      CG321      CG331
   39    40    82	5 ;      CG321      CG321       HGA2
   39    40    83	5 ;      CG321      CG321       HGA2
   41    40    82	5 ;      CG331      CG321       HGA2
   41    40    83	5 ;      CG331      CG321       HGA2
   82    40    83	5 ;       HGA2      CG321       HGA2
   40    41    84	5 ;      CG321      CG331       HGA3
   40    41    85	5 ;      CG321      CG331       HGA3
   40    41    86	5 ;      CG321      CG331       HGA3
   84    41    85	5 ;       HGA3      CG331       HGA3
   84    41    86	5 ;       HGA3      CG331       HGA3
   85    41    86	5 ;       HGA3      CG331       HGA3

[ dihedrals ]
;	ai	  aj	ak	  al funct			  c0			c1			  c2			c3			  c4			c5
    9     1    28    31	 9 ;      NG2S1      CG311      CG311      CG321
    9     1    28    29	 9 ;      NG2S1      CG311      CG311      OG311
    9     1    28    71	 9 ;      NG2S1      CG311      CG311       HGA1
    2     1    28    31	 9 ;      CG321      CG311      CG311      CG321
    2     1    28    29	 9 ;      CG321      CG311      CG311      OG311
    2     1    28    71	 9 ;      CG321      CG311      CG311       HGA1
   42     1    28    31	 9 ;       HGA1      CG311      CG311      CG321
   42     1    28    29	 9 ;       HGA1      CG311      CG311      OG311
   42     1    28    71	 9 ;       HGA1      CG311      CG311       HGA1
   28     1     9    12	 9 ;      CG311      CG311      NG2S1       HGP1
   28     1     9    10	 9 ;      CG311      CG311      NG2S1      CG2O1
    2     1     9    12	 9 ;      CG321      CG311      NG2S1       HGP1
    2     1     9    10	 9 ;      CG321      CG311      NG2S1      CG2O1
   42     1     9    12	 9 ;       HGA1      CG311      NG2S1       HGP1
   42     1     9    10	 9 ;       HGA1      CG311      NG2S1      CG2O1
   28     1     2     3	 9 ;      CG311      CG311      CG321     CG2R61
   28     1     2    43	 9 ;      CG311      CG311      CG321       HGA2
   28     1     2    44	 9 ;      CG311      CG311      CG321       HGA2
    9     1     2     3	 9 ;      NG2S1      CG311      CG321     CG2R61
    9     1     2    43	 9 ;      NG2S1      CG311      CG321       HGA2
    9     1     2    44	 9 ;      NG2S1      CG311      CG321       HGA2
   42     1     2     3	 9 ;       HGA1      CG311      CG321     CG2R61
   42     1     2    43	 9 ;       HGA1      CG311      CG321       HGA2
   42     1     2    44	 9 ;       HGA1      CG311      CG321       HGA2
    1     2     3     4	 9 ;      CG311      CG321     CG2R61     CG2R61
    1     2     3     8	 9 ;      CG311      CG321     CG2R61     CG2R61
   43     2     3     4	 9 ;       HGA2      CG321     CG2R61     CG2R61
   43     2     3     8	 9 ;       HGA2      CG321     CG2R61     CG2R61
   44     2     3     4	 9 ;       HGA2      CG321     CG2R61     CG2R61
   44     2     3     8	 9 ;       HGA2      CG321     CG2R61     CG2R61
    2     3     4     5	 9 ;      CG321     CG2R61     CG2R61     CG2R61
    2     3     4    45	 9 ;      CG321     CG2R61     CG2R61      HGR61
    8     3     4     5	 9 ;     CG2R61     CG2R61     CG2R61     CG2R61
    8     3     4    45	 9 ;     CG2R61     CG2R61     CG2R61      HGR61
    4     3     8     7	 9 ;     CG2R61     CG2R61     CG2R61     CG2R61
    4     3     8    49	 9 ;     CG2R61     CG2R61     CG2R61      HGR61
    2     3     8     7	 9 ;      CG321     CG2R61     CG2R61     CG2R61
    2     3     8    49	 9 ;      CG321     CG2R61     CG2R61      HGR61
    3     4     5     6	 9 ;     CG2R61     CG2R61     CG2R61     CG2R61
    3     4     5    46	 9 ;     CG2R61     CG2R61     CG2R61      HGR61
   45     4     5     6	 9 ;      HGR61     CG2R61     CG2R61     CG2R61
   45     4     5    46	 9 ;      HGR61     CG2R61     CG2R61      HGR61
    4     5     6     7	 9 ;     CG2R61     CG2R61     CG2R61     CG2R61
    4     5     6    47	 9 ;     CG2R61     CG2R61     CG2R61      HGR61
   46     5     6     7	 9 ;      HGR61     CG2R61     CG2R61     CG2R61
   46     5     6    47	 9 ;      HGR61     CG2R61     CG2R61      HGR61
    5     6     7     8	 9 ;     CG2R61     CG2R61     CG2R61     CG2R61
    5     6     7    48	 9 ;     CG2R61     CG2R61     CG2R61      HGR61
   47     6     7     8	 9 ;      HGR61     CG2R61     CG2R61     CG2R61
   47     6     7    48	 9 ;      HGR61     CG2R61     CG2R61      HGR61
    6     7     8     3	 9 ;     CG2R61     CG2R61     CG2R61     CG2R61
    6     7     8    49	 9 ;     CG2R61     CG2R61     CG2R61      HGR61
   48     7     8     3	 9 ;      HGR61     CG2R61     CG2R61     CG2R61
   48     7     8    49	 9 ;      HGR61     CG2R61     CG2R61      HGR61
    1     9    10    11	 9 ;      CG311      NG2S1      CG2O1      OG2D1
    1     9    10    13	 9 ;      CG311      NG2S1      CG2O1      CG311
   12     9    10    11	 9 ;       HGP1      NG2S1      CG2O1      OG2D1
   12     9    10    13	 9 ;       HGP1      NG2S1      CG2O1      CG311
   11    10    13    18	 9 ;      OG2D1      CG2O1      CG311      CG321
   11    10    13    14	 9 ;      OG2D1      CG2O1      CG311      CG321
   11    10    13    50	 9 ;      OG2D1      CG2O1      CG311       HGA1
    9    10    13    18	 9 ;      NG2S1      CG2O1      CG311      CG321
    9    10    13    14	 9 ;      NG2S1      CG2O1      CG311      CG321
    9    10    13    50	 9 ;      NG2S1      CG2O1      CG311       HGA1
   10    13    18    17	 9 ;      CG2O1      CG311      CG321      CG321
   10    13    18    58	 9 ;      CG2O1      CG311      CG321       HGA2
   10    13    18    59	 9 ;      CG2O1      CG311      CG321       HGA2
   14    13    18    17	 9 ;      CG321      CG311      CG321      CG321
   14    13    18    58	 9 ;      CG321      CG311      CG321       HGA2
   14    13    18    59	 9 ;      CG321      CG311      CG321       HGA2
   50    13    18    17	 9 ;       HGA1      CG311      CG321      CG321
   50    13    18    58	 9 ;       HGA1      CG311      CG321       HGA2
   50    13    18    59	 9 ;       HGA1      CG311      CG321       HGA2
   10    13    14    15	 9 ;      CG2O1      CG311      CG321      CG311
   10    13    14    51	 9 ;      CG2O1      CG311      CG321       HGA2
   10    13    14    52	 9 ;      CG2O1      CG311      CG321       HGA2
   18    13    14    15	 9 ;      CG321      CG311      CG321      CG311
   18    13    14    51	 9 ;      CG321      CG311      CG321       HGA2
   18    13    14    52	 9 ;      CG321      CG311      CG321       HGA2
   50    13    14    15	 9 ;       HGA1      CG311      CG321      CG311
   50    13    14    51	 9 ;       HGA1      CG311      CG321       HGA2
   50    13    14    52	 9 ;       HGA1      CG311      CG321       HGA2
   13    14    15    16	 9 ;      CG311      CG321      CG311      CG321
   13    14    15    19	 9 ;      CG311      CG321      CG311      CG311
   13    14    15    53	 9 ;      CG311      CG321      CG311       HGA1
   51    14    15    16	 9 ;       HGA2      CG321      CG311      CG321
   51    14    15    19	 9 ;       HGA2      CG321      CG311      CG311
   51    14    15    53	 9 ;       HGA2      CG321      CG311       HGA1
   52    14    15    16	 9 ;       HGA2      CG321      CG311      CG321
   52    14    15    19	 9 ;       HGA2      CG321      CG311      CG311
   52    14    15    53	 9 ;       HGA2      CG321      CG311       HGA1
   14    15    16    17	 9 ;      CG321      CG311      CG321      CG321
   14    15    16    54	 9 ;      CG321      CG311      CG321       HGA2
   14    15    16    55	 9 ;      CG321      CG311      CG321       HGA2
   19    15    16    17	 9 ;      CG311      CG311      CG321      CG321
   19    15    16    54	 9 ;      CG311      CG311      CG321       HGA2
   19    15    16    55	 9 ;      CG311      CG311      CG321       HGA2
   53    15    16    17	 9 ;       HGA1      CG311      CG321      CG321
   53    15    16    54	 9 ;       HGA1      CG311      CG321       HGA2
   53    15    16    55	 9 ;       HGA1      CG311      CG321       HGA2
   14    15    19    23	 9 ;      CG321      CG311      CG311      NG2S1
   14    15    19    20	 9 ;      CG321      CG311      CG311      CG311
   14    15    19    60	 9 ;      CG321      CG311      CG311       HGA1
   16    15    19    23	 9 ;      CG321      CG311      CG311      NG2S1
   16    15    19    20	 9 ;      CG321      CG311      CG311      CG311
   16    15    19    60	 9 ;      CG321      CG311      CG311       HGA1
   53    15    19    23	 9 ;       HGA1      CG311      CG311      NG2S1
   53    15    19    20	 9 ;       HGA1      CG311      CG311      CG311
   53    15    19    60	 9 ;       HGA1      CG311      CG311       HGA1
   15    16    17    18	 9 ;      CG311      CG321      CG321      CG321
   15    16    17    56	 9 ;      CG311      CG321      CG321       HGA2
   15    16    17    57	 9 ;      CG311      CG321      CG321       HGA2
   54    16    17    18	 9 ;       HGA2      CG321      CG321      CG321
   54    16    17    56	 9 ;       HGA2      CG321      CG321       HGA2
   54    16    17    57	 9 ;       HGA2      CG321      CG321       HGA2
   55    16    17    18	 9 ;       HGA2      CG321      CG321      CG321
   55    16    17    56	 9 ;       HGA2      CG321      CG321       HGA2
   55    16    17    57	 9 ;       HGA2      CG321      CG321       HGA2
   16    17    18    13	 9 ;      CG321      CG321      CG321      CG311
   16    17    18    58	 9 ;      CG321      CG321      CG321       HGA2
   16    17    18    59	 9 ;      CG321      CG321      CG321       HGA2
   56    17    18    13	 9 ;       HGA2      CG321      CG321      CG311
   56    17    18    58	 9 ;       HGA2      CG321      CG321       HGA2
   56    17    18    59	 9 ;       HGA2      CG321      CG321       HGA2
   57    17    18    13	 9 ;       HGA2      CG321      CG321      CG311
   57    17    18    58	 9 ;       HGA2      CG321      CG321       HGA2
   57    17    18    59	 9 ;       HGA2      CG321      CG321       HGA2
   15    19    23    24	 9 ;      CG311      CG311      NG2S1      CG2O1
   15    19    23    27	 9 ;      CG311      CG311      NG2S1       HGP1
   20    19    23    24	 9 ;      CG311      CG311      NG2S1      CG2O1
   20    19    23    27	 9 ;      CG311      CG311      NG2S1       HGP1
   60    19    23    24	 9 ;       HGA1      CG311      NG2S1      CG2O1
   60    19    23    27	 9 ;       HGA1      CG311      NG2S1       HGP1
   23    19    20    21	 9 ;      NG2S1      CG311      CG311      CG331
   23    19    20    22	 9 ;      NG2S1      CG311      CG311      CG331
   23    19    20    61	 9 ;      NG2S1      CG311      CG311       HGA1
   15    19    20    21	 9 ;      CG311      CG311      CG311      CG331
   15    19    20    22	 9 ;      CG311      CG311      CG311      CG331
   15    19    20    61	 9 ;      CG311      CG311      CG311       HGA1
   60    19    20    21	 9 ;       HGA1      CG311      CG311      CG331
   60    19    20    22	 9 ;       HGA1      CG311      CG311      CG331
   60    19    20    61	 9 ;       HGA1      CG311      CG311       HGA1
   19    20    21    62	 9 ;      CG311      CG311      CG331       HGA3
   19    20    21    63	 9 ;      CG311      CG311      CG331       HGA3
   19    20    21    64	 9 ;      CG311      CG311      CG331       HGA3
   22    20    21    62	 9 ;      CG331      CG311      CG331       HGA3
   22    20    21    63	 9 ;      CG331      CG311      CG331       HGA3
   22    20    21    64	 9 ;      CG331      CG311      CG331       HGA3
   61    20    21    62	 9 ;       HGA1      CG311      CG331       HGA3
   61    20    21    63	 9 ;       HGA1      CG311      CG331       HGA3
   61    20    21    64	 9 ;       HGA1      CG311      CG331       HGA3
   19    20    22    65	 9 ;      CG311      CG311      CG331       HGA3
   19    20    22    66	 9 ;      CG311      CG311      CG331       HGA3
   19    20    22    67	 9 ;      CG311      CG311      CG331       HGA3
   21    20    22    65	 9 ;      CG331      CG311      CG331       HGA3
   21    20    22    66	 9 ;      CG331      CG311      CG331       HGA3
   21    20    22    67	 9 ;      CG331      CG311      CG331       HGA3
   61    20    22    65	 9 ;       HGA1      CG311      CG331       HGA3
   61    20    22    66	 9 ;       HGA1      CG311      CG331       HGA3
   61    20    22    67	 9 ;       HGA1      CG311      CG331       HGA3
   27    23    24    26	 9 ;       HGP1      NG2S1      CG2O1      CG331
   27    23    24    25	 9 ;       HGP1      NG2S1      CG2O1      OG2D1
   19    23    24    26	 9 ;      CG311      NG2S1      CG2O1      CG331
   19    23    24    25	 9 ;      CG311      NG2S1      CG2O1      OG2D1
   25    24    26    68	 9 ;      OG2D1      CG2O1      CG331       HGA3
   25    24    26    69	 9 ;      OG2D1      CG2O1      CG331       HGA3
   25    24    26    70	 9 ;      OG2D1      CG2O1      CG331       HGA3
   23    24    26    68	 9 ;      NG2S1      CG2O1      CG331       HGA3
   23    24    26    69	 9 ;      NG2S1      CG2O1      CG331       HGA3
   23    24    26    70	 9 ;      NG2S1      CG2O1      CG331       HGA3
    1    28    31    32	 9 ;      CG311      CG311      CG321      CG311
    1    28    31    72	 9 ;      CG311      CG311      CG321       HGA2
    1    28    31    73	 9 ;      CG311      CG311      CG321       HGA2
   29    28    31    32	 9 ;      OG311      CG311      CG321      CG311
   29    28    31    72	 9 ;      OG311      CG311      CG321       HGA2
   29    28    31    73	 9 ;      OG311      CG311      CG321       HGA2
   71    28    31    32	 9 ;       HGA1      CG311      CG321      CG311
   71    28    31    72	 9 ;       HGA1      CG311      CG321       HGA2
   71    28    31    73	 9 ;       HGA1      CG311      CG321       HGA2
   31    28    29    30	 9 ;      CG321      CG311      OG311       HGP1
    1    28    29    30	 9 ;      CG311      CG311      OG311       HGP1
   71    28    29    30	 9 ;       HGA1      CG311      OG311       HGP1
   28    31    32    33	 9 ;      CG311      CG321      CG311      CG331
   28    31    32    34	 9 ;      CG311      CG321      CG311      CG2O1
   28    31    32    74	 9 ;      CG311      CG321      CG311       HGA1
   72    31    32    33	 9 ;       HGA2      CG321      CG311      CG331
   72    31    32    34	 9 ;       HGA2      CG321      CG311      CG2O1
   72    31    32    74	 9 ;       HGA2      CG321      CG311       HGA1
   73    31    32    33	 9 ;       HGA2      CG321      CG311      CG331
   73    31    32    34	 9 ;       HGA2      CG321      CG311      CG2O1
   73    31    32    74	 9 ;       HGA2      CG321      CG311       HGA1
   34    32    33    75	 9 ;      CG2O1      CG311      CG331       HGA3
   34    32    33    76	 9 ;      CG2O1      CG311      CG331       HGA3
   34    32    33    77	 9 ;      CG2O1      CG311      CG331       HGA3
   31    32    33    75	 9 ;      CG321      CG311      CG331       HGA3
   31    32    33    76	 9 ;      CG321      CG311      CG331       HGA3
   31    32    33    77	 9 ;      CG321      CG311      CG331       HGA3
   74    32    33    75	 9 ;       HGA1      CG311      CG331       HGA3
   74    32    33    76	 9 ;       HGA1      CG311      CG331       HGA3
   74    32    33    77	 9 ;       HGA1      CG311      CG331       HGA3
   33    32    34    36	 9 ;      CG331      CG311      CG2O1      NG2S1
   33    32    34    35	 9 ;      CG331      CG311      CG2O1      OG2D1
   31    32    34    36	 9 ;      CG321      CG311      CG2O1      NG2S1
   31    32    34    35	 9 ;      CG321      CG311      CG2O1      OG2D1
   74    32    34    36	 9 ;       HGA1      CG311      CG2O1      NG2S1
   74    32    34    35	 9 ;       HGA1      CG311      CG2O1      OG2D1
   32    34    36    37	 9 ;      CG311      CG2O1      NG2S1       HGP1
   32    34    36    38	 9 ;      CG311      CG2O1      NG2S1      CG321
   35    34    36    37	 9 ;      OG2D1      CG2O1      NG2S1       HGP1
   35    34    36    38	 9 ;      OG2D1      CG2O1      NG2S1      CG321
   37    36    38    39	 9 ;       HGP1      NG2S1      CG321      CG321
   37    36    38    78	 9 ;       HGP1      NG2S1      CG321       HGA2
   37    36    38    79	 9 ;       HGP1      NG2S1      CG321       HGA2
   34    36    38    39	 9 ;      CG2O1      NG2S1      CG321      CG321
   34    36    38    78	 9 ;      CG2O1      NG2S1      CG321       HGA2
   34    36    38    79	 9 ;      CG2O1      NG2S1      CG321       HGA2
   36    38    39    40	 9 ;      NG2S1      CG321      CG321      CG321
   36    38    39    80	 9 ;      NG2S1      CG321      CG321       HGA2
   36    38    39    81	 9 ;      NG2S1      CG321      CG321       HGA2
   78    38    39    40	 9 ;       HGA2      CG321      CG321      CG321
   78    38    39    80	 9 ;       HGA2      CG321      CG321       HGA2
   78    38    39    81	 9 ;       HGA2      CG321      CG321       HGA2
   79    38    39    40	 9 ;       HGA2      CG321      CG321      CG321
   79    38    39    80	 9 ;       HGA2      CG321      CG321       HGA2
   79    38    39    81	 9 ;       HGA2      CG321      CG321       HGA2
   38    39    40    41	 9 ;      CG321      CG321      CG321      CG331
   38    39    40    82	 9 ;      CG321      CG321      CG321       HGA2
   38    39    40    83	 9 ;      CG321      CG321      CG321       HGA2
   80    39    40    41	 9 ;       HGA2      CG321      CG321      CG331
   80    39    40    82	 9 ;       HGA2      CG321      CG321       HGA2
   80    39    40    83	 9 ;       HGA2      CG321      CG321       HGA2
   81    39    40    41	 9 ;       HGA2      CG321      CG321      CG331
   81    39    40    82	 9 ;       HGA2      CG321      CG321       HGA2
   81    39    40    83	 9 ;       HGA2      CG321      CG321       HGA2
   39    40    41    84	 9 ;      CG321      CG321      CG331       HGA3
   39    40    41    85	 9 ;      CG321      CG321      CG331       HGA3
   39    40    41    86	 9 ;      CG321      CG321      CG331       HGA3
   82    40    41    84	 9 ;       HGA2      CG321      CG331       HGA3
   82    40    41    85	 9 ;       HGA2      CG321      CG331       HGA3
   82    40    41    86	 9 ;       HGA2      CG321      CG331       HGA3
   83    40    41    84	 9 ;       HGA2      CG321      CG331       HGA3
   83    40    41    85	 9 ;       HGA2      CG321      CG331       HGA3
   83    40    41    86	 9 ;       HGA2      CG321      CG331       HGA3

[ dihedrals ]
;	ai	  aj	ak	  al funct			  c0			c1			  c2			c3
   10    13     9    11	 2
   24    26    23    25	 2
   34    32    36    35	 2

