Georgetown Riga Oslo Madrid Amsterdam Chisinau Stockholm
   86
    1LIG     C1    1  -1.247   0.338  -1.432
    1LIG     C2    2  -1.262   0.236  -1.311
    1LIG     C3    3  -1.177   0.106  -1.321
    1LIG     C4    4  -1.044   0.108  -1.364
    1LIG     C5    5  -0.970  -0.010  -1.380
    1LIG     C6    6  -1.029  -0.135  -1.353
    1LIG     C7    7  -1.161  -0.137  -1.309
    1LIG     C8    8  -1.235  -0.019  -1.291
    1LIG     N1    9  -1.379   0.390  -1.491
    1LIG     C9   10  -1.462   0.325  -1.584
    1LIG     O1   11  -1.427   0.216  -1.631
    1LIG     H1   12  -1.375   0.489  -1.515
    1LIG    C10   13  -1.611   0.383  -1.605
    1LIG    C11   14  -1.716   0.413  -1.490
    1LIG    C12   15  -1.876   0.385  -1.505
    1LIG    C13   16  -1.892   0.262  -1.594
    1LIG    C14   17  -1.812   0.261  -1.724
    1LIG    C15   18  -1.665   0.297  -1.720
    1LIG    C16   19  -1.987   0.501  -1.539
    1LIG    C17   20  -2.123   0.526  -1.449
    1LIG    C18   21  -2.239   0.613  -1.500
    1LIG    C19   22  -2.187   0.404  -1.378
    1LIG     N2   23  -1.920   0.633  -1.546
    1LIG    C20   24  -1.892   0.705  -1.660
    1LIG     O2   25  -1.881   0.827  -1.652
    1LIG    C21   26  -1.872   0.631  -1.789
    1LIG     H2   27  -1.941   0.697  -1.470
    1LIG    C22   28  -1.170   0.460  -1.374
    1LIG     O3   29  -1.194   0.469  -1.232
    1LIG     H3   30  -1.176   0.561  -1.206
    1LIG    C23   31  -1.206   0.595  -1.437
    1LIG    C24   32  -1.121   0.619  -1.563
    1LIG    C25   33  -1.035   0.744  -1.545
    1LIG    C26   34  -1.209   0.638  -1.688
    1LIG     O4   35  -1.254   0.543  -1.751
    1LIG     N3   36  -1.231   0.770  -1.722
    1LIG     H4   37  -1.182   0.842  -1.672
    1LIG    C27   38  -1.313   0.808  -1.836
    1LIG    C28   39  -1.462   0.818  -1.801
    1LIG    C29   40  -1.489   0.876  -1.662
    1LIG    C30   41  -1.544   0.769  -1.568
    1LIG     HC   42  -1.187   0.292  -1.511
    1LIG    HC2   43  -1.366   0.208  -1.304
    1LIG    HC3   44  -1.234   0.289  -1.219
    1LIG    HC1   45  -0.997   0.203  -1.384
    1LIG    HC4   46  -0.868  -0.005  -1.414
    1LIG    HC5   47  -0.973  -0.226  -1.365
    1LIG    HC6   48  -1.208  -0.232  -1.287
    1LIG    HC7   49  -1.336  -0.024  -1.255
    1LIG    HC8   50  -1.595   0.481  -1.652
    1LIG    HC9   51  -1.706   0.520  -1.468
    1LIG   HC10   52  -1.682   0.359  -1.402
    1LIG   HC11   53  -1.906   0.349  -1.407
    1LIG   HC12   54  -1.997   0.254  -1.621
    1LIG   HC13   55  -1.864   0.174  -1.536
    1LIG   HC14   56  -1.819   0.160  -1.765
    1LIG   HC15   57  -1.861   0.329  -1.794
    1LIG   HC16   58  -1.643   0.350  -1.812
    1LIG   HC17   59  -1.608   0.204  -1.720
    1LIG   HC18   60  -2.021   0.480  -1.640
    1LIG   HC19   61  -2.085   0.584  -1.365
    1LIG   HC20   62  -2.199   0.701  -1.551
    1LIG   HC21   63  -2.300   0.644  -1.415
    1LIG   HC22   64  -2.300   0.555  -1.569
    1LIG   HC23   65  -2.108   0.338  -1.340
    1LIG   HC24   66  -2.249   0.438  -1.295
    1LIG   HC25   67  -2.249   0.349  -1.449
    1LIG   HC26   68  -1.830   0.699  -1.864
    1LIG   HC27   69  -1.968   0.593  -1.825
    1LIG   HC28   70  -1.804   0.548  -1.774
    1LIG   HC29   71  -1.064   0.444  -1.389
    1LIG   HC30   72  -1.312   0.594  -1.464
    1LIG   HC31   73  -1.188   0.674  -1.365
    1LIG   HC32   74  -1.056   0.534  -1.579
    1LIG   HC33   75  -0.950   0.720  -1.482
    1LIG   HC34   76  -1.000   0.778  -1.642
    1LIG   HC35   77  -1.094   0.822  -1.498
    1LIG   HC36   78  -1.300   0.734  -1.914
    1LIG   HC37   79  -1.279   0.905  -1.872
    1LIG   HC38   80  -1.510   0.882  -1.875
    1LIG   HC39   81  -1.506   0.718  -1.807
    1LIG   HC40   82  -1.562   0.957  -1.671
    1LIG   HC41   83  -1.396   0.916  -1.621
    1LIG   HC42   84  -1.562   0.813  -1.470
    1LIG   HC43   85  -1.637   0.730  -1.609
    1LIG   HC44   86  -1.471   0.689  -1.559
   0.00000   0.00000   0.00000
