Georgetown Riga Oslo Madrid Amsterdam Chisinau Stockholm
   53
    1LIG     O1    1  -1.066   0.550  -1.436
    1LIG     C1    2  -1.153   0.447  -1.414
    1LIG     C2    3  -1.189   0.356  -1.512
    1LIG     C3    4  -1.230   0.228  -1.467
    1LIG     C4    5  -1.287   0.212  -1.342
    1LIG     C5    6  -1.285   0.322  -1.253
    1LIG     C6    7  -1.209   0.434  -1.286
    1LIG     C7    8  -1.183   0.393  -1.660
    1LIG     N1    9  -1.273   0.496  -1.727
    1LIG     HN   10  -1.266   0.597  -1.718
    1LIG     C8   11  -1.359   0.432  -1.796
    1LIG     N2   12  -1.376   0.304  -1.761
    1LIG     C9   13  -1.472   0.309  -1.649
    1LIG    C10   14  -1.240   0.274  -1.741
    1LIG     O2   15  -1.177   0.187  -1.796
    1LIG    C11   16  -1.054   0.473  -1.671
    1LIG    C12   17  -1.071   0.599  -1.572
    1LIG    C13   18  -0.958   0.700  -1.599
    1LIG    C14   19  -1.202   0.685  -1.569
    1LIG     N3   20  -1.438   0.484  -1.893
    1LIG     H1   21  -1.479   0.576  -1.867
    1LIG     H2   22  -1.512   0.420  -1.918
    1LIG     O3   23  -1.346   0.091  -1.319
    1LIG    C15   24  -1.267  -0.024  -1.350
    1LIG    C16   25  -1.199  -0.084  -1.225
    1LIG    C17   26  -1.063  -0.021  -1.196
    1LIG    C18   27  -1.286  -0.075  -1.100
    1LIG     HC   28  -1.218   0.142  -1.532
    1LIG    HC1   29  -1.342   0.319  -1.161
    1LIG    HC2   30  -1.193   0.511  -1.212
    1LIG    HN2   31  -1.335   0.493  -1.647
    1LIG    HC3   32  -1.283   0.405  -1.869
    1LIG    HC4   33  -0.969   0.412  -1.640
    1LIG    HC5   34  -1.039   0.508  -1.773
    1LIG    HN1   35  -1.381   0.498  -1.975
    1LIG    HC6   36  -1.191   0.004  -1.422
    1LIG    HC7   37  -1.332  -0.100  -1.395
    1LIG    HC8   38  -1.182  -0.190  -1.246
    1LIG    HC9   39  -1.000  -0.026  -1.284
    1LIG   HC10   40  -1.077   0.084  -1.168
    1LIG   HC11   41  -1.015  -0.074  -1.113
    1LIG   HC12   42  -1.198   0.754  -1.484
    1LIG   HC13   43  -1.288   0.619  -1.557
    1LIG   HC14   44  -1.212   0.741  -1.661
    1LIG   HC15   45  -1.492   0.208  -1.614
    1LIG   HC16   46  -1.566   0.354  -1.683
    1LIG   HC17   47  -1.431   0.368  -1.567
    1LIG   HC18   48  -0.863   0.647  -1.603
    1LIG   HC19   49  -0.955   0.774  -1.519
    1LIG   HC20   50  -0.976   0.750  -1.694
    1LIG   HC21   51  -1.384  -0.120  -1.121
    1LIG   HC22   52  -1.238  -0.129  -1.019
    1LIG   HC23   53  -1.300   0.029  -1.072
   0.00000   0.00000   0.00000
