Great Red Owns Many ACres of Sand 
   67
    1LIG     C1    1  -1.504   0.374  -1.447
    1LIG     N1    2  -1.640   0.321  -1.492
    1LIG     H1    3  -1.651   0.228  -1.447
    1LIG     H2    4  -1.633   0.298  -1.592
    1LIG     C2    5  -1.763   0.404  -1.463
    1LIG     C3    6  -1.887   0.323  -1.510
    1LIG     C4    7  -1.901   0.189  -1.437
    1LIG     C5    8  -1.911   0.209  -1.286
    1LIG     C6    9  -1.796   0.292  -1.231
    1LIG     C7   10  -1.775   0.422  -1.309
    1LIG     C8   11  -1.748   0.540  -1.531
    1LIG      S   12  -1.756   0.683  -1.434
    1LIG     C9   13  -1.697   0.782  -1.560
    1LIG    C10   14  -1.693   0.713  -1.679
    1LIG    C11   15  -1.723   0.573  -1.663
    1LIG    C12   16  -1.654   0.924  -1.529
    1LIG    C13   17  -1.603   0.992  -1.656
    1LIG    C14   18  -1.764   1.007  -1.464
    1LIG    C15   19  -1.413   0.371  -1.570
    1LIG     O1   20  -1.439   0.245  -1.636
    1LIG     H3   21  -1.377   0.177  -1.602
    1LIG    C16   22  -1.261   0.390  -1.541
    1LIG    C17   23  -1.180   0.289  -1.628
    1LIG    C18   24  -1.110   0.181  -1.548
    1LIG    C19   25  -0.987   0.205  -1.488
    1LIG    C20   26  -0.916   0.098  -1.431
    1LIG     F1   27  -0.794   0.122  -1.380
    1LIG    C21   28  -0.967  -0.030  -1.430
    1LIG    C22   29  -1.094  -0.052  -1.483
    1LIG     F2   30  -1.146  -0.175  -1.482
    1LIG    C23   31  -1.166   0.052  -1.541
    1LIG     N2   32  -1.210   0.527  -1.554
    1LIG    C24   33  -1.179   0.604  -1.443
    1LIG     O2   34  -1.142   0.552  -1.338
    1LIG    C25   35  -1.192   0.752  -1.465
    1LIG     H4   36  -1.246   0.580  -1.633
    1LIG    HC2   37  -1.514   0.475  -1.410
    1LIG    HC3   38  -1.464   0.309  -1.369
    1LIG    HC4   39  -1.876   0.304  -1.617
    1LIG    HC5   40  -1.976   0.383  -1.494
    1LIG    HC6   41  -1.992   0.140  -1.472
    1LIG    HC7   42  -1.815   0.126  -1.460
    1LIG    HC8   43  -1.909   0.111  -1.238
    1LIG    HC9   44  -2.005   0.259  -1.263
    1LIG   HC10   45  -1.817   0.317  -1.127
    1LIG   HC11   46  -1.704   0.233  -1.236
    1LIG   HC12   47  -1.683   0.469  -1.273
    1LIG   HC13   48  -1.859   0.489  -1.288
    1LIG     HC   49  -1.669   0.758  -1.775
    1LIG    HC1   50  -1.725   0.503  -1.744
    1LIG   HC14   51  -1.571   0.919  -1.459
    1LIG   HC15   52  -1.574   1.095  -1.633
    1LIG   HC16   53  -1.683   0.994  -1.731
    1LIG   HC17   54  -1.517   0.938  -1.695
    1LIG   HC18   55  -1.799   0.957  -1.373
    1LIG   HC19   56  -1.847   1.018  -1.533
    1LIG   HC20   57  -1.725   1.105  -1.438
    1LIG   HC21   58  -1.444   0.451  -1.637
    1LIG   HC22   59  -1.246   0.361  -1.437
    1LIG   HC23   60  -1.105   0.345  -1.684
    1LIG   HC24   61  -1.248   0.242  -1.699
    1LIG   HC25   62  -0.946   0.304  -1.485
    1LIG   HC26   63  -0.910  -0.112  -1.389
    1LIG   HC27   64  -1.265   0.034  -1.581
    1LIG   HC28   65  -1.166   0.805  -1.373
    1LIG   HC29   66  -1.296   0.775  -1.492
    1LIG   HC30   67  -1.126   0.783  -1.545
   0.00000   0.00000   0.00000
