; Created by cgenff_charmm2gmx.py

[ moleculetype ]
; Name			   nrexcl
LIG				 3

[ atoms ]
;	 nr		  type	resnr residue  atom   cgnr	   charge		mass  typeB    chargeB		massB
; residue	 1 LIG rtp LIG q	qsum
     1      NG301      1    LIG     N1      1     -0.125     14.007   ;
     2      CG311      1    LIG     C1      2      0.120     12.011   ;
     3      CG331      1    LIG     C2      3     -0.297     12.011   ;
     4      CG311      1    LIG     C3      4     -0.081     12.011   ;
     5      CG311      1    LIG     C4      5      0.053     12.011   ;
     6      CG311      1    LIG     C5      6     -0.082     12.011   ;
     7      CG311      1    LIG     C6      7      0.120     12.011   ;
     8      CG331      1    LIG     C7      8     -0.297     12.011   ;
     9      CG2O1      1    LIG     C8      9      0.707     12.011   ;
    10      OG2D1      1    LIG     O1     10     -0.510     15.999   ;
    11      NG2P1      1    LIG     N2     11     -0.328     14.007   ;
    12       HGP2      1    LIG     H1     12      0.414      1.008   ;
    13     CG2DC1      1    LIG     C9     13      0.640     12.011   ;
    14      CG321      1    LIG    C10     14     -0.050     12.011   ;
    15     CG2R61      1    LIG    C11     15     -0.189     12.011   ;
    16     CG2R61      1    LIG    C12     16     -0.123     12.011   ;
    17     CG2R61      1    LIG    C13     17     -0.112     12.011   ;
    18     CG2R61      1    LIG    C14     18     -0.116     12.011   ;
    19     CG2R61      1    LIG    C15     19     -0.112     12.011   ;
    20     CG2R61      1    LIG    C16     20     -0.123     12.011   ;
    21      CG311      1    LIG    C17     21      0.230     12.011   ;
    22      CG324      1    LIG    C18     22      0.175     12.011   ;
    23      NG3P2      1    LIG     N3     23     -0.411     14.007   ;
    24       HGP2      1    LIG     H2     24      0.335      1.008   ;
    25       HGP2      1    LIG     H3     25      0.335      1.008   ;
    26     CG3C31      1    LIG    C19     26      0.283     12.011   ;
    27     CG3C31      1    LIG    C20     27     -0.179     12.011   ;
    28     CG3C31      1    LIG    C21     28     -0.179     12.011   ;
    29      OG311      1    LIG     O2     29     -0.614     15.999   ;
    30       HGP1      1    LIG     H4     30      0.408      1.008   ;
    31      CG321      1    LIG    C22     31     -0.244     12.011   ;
    32      CG331      1    LIG    C23     32     -0.271     12.011   ;
    33      SG3O2      1    LIG      S     33      0.088     32.060   ;
    34      OG2P1      1    LIG     O3     34     -0.328     15.999   ;
    35      OG2P1      1    LIG     O4     35     -0.328     15.999   ;
    36      CG331      1    LIG    C24     36      0.039     12.011   ;
    37      CG2O1      1    LIG    C25     37      0.516     12.011   ;
    38      OG2D1      1    LIG     O5     38     -0.453     15.999   ;
    39      NG2S1      1    LIG     N4     39     -0.323     14.007   ;
    40       HGP1      1    LIG     H5     40      0.335      1.008   ;
    41      OG301      1    LIG     O6     41     -0.379     15.999   ;
    42      CG321      1    LIG    C26     42      0.100     12.011   ;
    43     CG2R61      1    LIG    C27     43     -0.008     12.011   ;
    44     CG2R61      1    LIG    C28     44     -0.123     12.011   ;
    45     CG2R61      1    LIG    C29     45     -0.112     12.011   ;
    46     CG2R61      1    LIG    C30     46     -0.116     12.011   ;
    47     CG2R61      1    LIG    C31     47     -0.112     12.011   ;
    48     CG2R61      1    LIG    C32     48     -0.123     12.011   ;
    49       HGA3      1    LIG    HC1     49      0.090      1.008   ;
    50       HGA3      1    LIG    HC2     50      0.090      1.008   ;
    51       HGA3      1    LIG    HC3     51      0.090      1.008   ;
    52       HGA1      1    LIG     HC     52      0.090      1.008   ;
    53       HGA3      1    LIG    HC4     53      0.090      1.008   ;
    54       HGA3      1    LIG    HC5     54      0.090      1.008   ;
    55       HGA3      1    LIG    HC6     55      0.090      1.008   ;
    56       HGA2      1    LIG    HC7     56      0.090      1.008   ;
    57       HGA2      1    LIG    HC8     57      0.090      1.008   ;
    58      HGR61      1    LIG    HC9     58      0.116      1.008   ;
    59      HGR61      1    LIG   HC10     59      0.116      1.008   ;
    60      HGR61      1    LIG   HC11     60      0.116      1.008   ;
    61      HGR61      1    LIG   HC12     61      0.116      1.008   ;
    62      HGR61      1    LIG   HC13     62      0.116      1.008   ;
    63       HGA2      1    LIG   HC14     63      0.090      1.008   ;
    64       HGA2      1    LIG   HC15     64      0.090      1.008   ;
    65       HGA1      1    LIG   HC16     65      0.090      1.008   ;
    66       HGA2      1    LIG   HC17     66      0.090      1.008   ;
    67       HGA2      1    LIG   HC18     67      0.090      1.008   ;
    68       HGA2      1    LIG   HC19     68      0.090      1.008   ;
    69       HGA2      1    LIG   HC20     69      0.090      1.008   ;
    70       HGA2      1    LIG   HC21     70      0.090      1.008   ;
    71       HGA2      1    LIG   HC22     71      0.090      1.008   ;
    72       HGA3      1    LIG   HC23     72      0.090      1.008   ;
    73       HGA3      1    LIG   HC24     73      0.090      1.008   ;
    74       HGA3      1    LIG   HC25     74      0.090      1.008   ;
    75       HGA3      1    LIG   HC26     75      0.090      1.008   ;
    76       HGA3      1    LIG   HC27     76      0.090      1.008   ;
    77       HGA3      1    LIG   HC28     77      0.090      1.008   ;
    78       HGA2      1    LIG   HC29     78      0.090      1.008   ;
    79       HGA2      1    LIG   HC30     79      0.090      1.008   ;
    80      HGR61      1    LIG   HC31     80      0.116      1.008   ;
    81      HGR61      1    LIG   HC32     81      0.116      1.008   ;
    82      HGR61      1    LIG   HC33     82      0.116      1.008   ;
    83      HGR61      1    LIG   HC34     83      0.116      1.008   ;
    84      HGR61      1    LIG   HC35     84      0.116      1.008   ;
    85       HGA1      1    LIG    H42     85      0.090      1.008   ;
    86       HGA1      1    LIG    H43     86      0.090      1.008   ;
    87       HGA1      1    LIG    H44     87      0.090      1.008   ;
    88       HGA1      1    LIG    H45     88      0.090      1.008   ;
    89       HGA1      1    LIG    H46     89      0.090      1.008   ;

[ bonds ]
;	ai	  aj funct			  c0			c1			  c2			c3
    1    33	 1 ;       NG301      SG3O2
    1     7	 1 ;       NG301      CG311
    1     2	 1 ;       NG301      CG311
    2     3	 1 ;       CG311      CG331
    2     4	 1 ;       CG311      CG311
    2    85	 1 ;       CG311       HGA1
    3    49	 1 ;       CG331       HGA3
    3    50	 1 ;       CG331       HGA3
    3    51	 1 ;       CG331       HGA3
    4     5	 1 ;       CG311      CG311
    4     9	 1 ;       CG311      CG2O1
    4    86	 1 ;       CG311       HGA1
    5     6	 1 ;       CG311      CG311
    5    31	 1 ;       CG311      CG321
    5    52	 1 ;       CG311       HGA1
    6    37	 1 ;       CG311      CG2O1
    6     7	 1 ;       CG311      CG311
    6    87	 1 ;       CG311       HGA1
    7     8	 1 ;       CG311      CG331
    7    88	 1 ;       CG311       HGA1
    8    53	 1 ;       CG331       HGA3
    8    54	 1 ;       CG331       HGA3
    8    55	 1 ;       CG331       HGA3
    9    11	 1 ;       CG2O1      NG2P1
    9    10	 1 ;       CG2O1      OG2D1
   11    12	 1 ;       NG2P1       HGP2
   11    13	 1 ;       NG2P1     CG2DC1
   13    14	 1 ;      CG2DC1      CG321
   13    21	 1 ;      CG2DC1      CG311
   14    15	 1 ;       CG321     CG2R61
   14    56	 1 ;       CG321       HGA2
   14    57	 1 ;       CG321       HGA2
   15    16	 1 ;      CG2R61     CG2R61
   15    20	 1 ;      CG2R61     CG2R61
   16    17	 1 ;      CG2R61     CG2R61
   16    58	 1 ;      CG2R61      HGR61
   17    18	 1 ;      CG2R61     CG2R61
   17    59	 1 ;      CG2R61      HGR61
   18    19	 1 ;      CG2R61     CG2R61
   18    60	 1 ;      CG2R61      HGR61
   19    20	 1 ;      CG2R61     CG2R61
   19    61	 1 ;      CG2R61      HGR61
   20    62	 1 ;      CG2R61      HGR61
   21    29	 1 ;       CG311      OG311
   21    22	 1 ;       CG311      CG324
   21    89	 1 ;       CG311       HGA1
   22    23	 1 ;       CG324      NG3P2
   22    63	 1 ;       CG324       HGA2
   22    64	 1 ;       CG324       HGA2
   23    25	 1 ;       NG3P2       HGP2
   23    26	 1 ;       NG3P2     CG3C31
   23    24	 1 ;       NG3P2       HGP2
   26    28	 1 ;      CG3C31     CG3C31
   26    27	 1 ;      CG3C31     CG3C31
   26    65	 1 ;      CG3C31       HGA1
   27    28	 1 ;      CG3C31     CG3C31
   27    66	 1 ;      CG3C31       HGA2
   27    67	 1 ;      CG3C31       HGA2
   28    68	 1 ;      CG3C31       HGA2
   28    69	 1 ;      CG3C31       HGA2
   29    30	 1 ;       OG311       HGP1
   31    32	 1 ;       CG321      CG331
   31    70	 1 ;       CG321       HGA2
   31    71	 1 ;       CG321       HGA2
   32    72	 1 ;       CG331       HGA3
   32    73	 1 ;       CG331       HGA3
   32    74	 1 ;       CG331       HGA3
   33    36	 1 ;       SG3O2      CG331
   33    35	 1 ;       SG3O2      OG2P1
   33    34	 1 ;       SG3O2      OG2P1
   36    75	 1 ;       CG331       HGA3
   36    76	 1 ;       CG331       HGA3
   36    77	 1 ;       CG331       HGA3
   37    39	 1 ;       CG2O1      NG2S1
   37    38	 1 ;       CG2O1      OG2D1
   39    41	 1 ;       NG2S1      OG301
   39    40	 1 ;       NG2S1       HGP1
   41    42	 1 ;       OG301      CG321
   42    43	 1 ;       CG321     CG2R61
   42    78	 1 ;       CG321       HGA2
   42    79	 1 ;       CG321       HGA2
   43    44	 1 ;      CG2R61     CG2R61
   43    48	 1 ;      CG2R61     CG2R61
   44    45	 1 ;      CG2R61     CG2R61
   44    80	 1 ;      CG2R61      HGR61
   45    46	 1 ;      CG2R61     CG2R61
   45    81	 1 ;      CG2R61      HGR61
   46    47	 1 ;      CG2R61     CG2R61
   46    82	 1 ;      CG2R61      HGR61
   47    48	 1 ;      CG2R61     CG2R61
   47    83	 1 ;      CG2R61      HGR61
   48    84	 1 ;      CG2R61      HGR61

[ pairs ]
;	ai	  aj funct			  c0			c1			  c2			c3
    1    49	 1
    1    50	 1
    1    51	 1
    1     5	 1
    1     9	 1
    1    86	 1
    1    37	 1
    1    87	 1
    1    53	 1
    1    54	 1
    1    55	 1
    1    75	 1
    1    76	 1
    1    77	 1
    2    36	 1
    2    35	 1
    2    34	 1
    2     8	 1
    2     6	 1
    2    88	 1
    2    31	 1
    2    52	 1
    2    11	 1
    2    10	 1
    3    33	 1
    3     7	 1
    3     5	 1
    3     9	 1
    3    86	 1
    4    33	 1
    4     7	 1
    4    49	 1
    4    50	 1
    4    51	 1
    4    37	 1
    4    87	 1
    4    32	 1
    4    70	 1
    4    71	 1
    4    12	 1
    4    13	 1
    5    85	 1
    5    11	 1
    5    10	 1
    5    39	 1
    5    38	 1
    5     8	 1
    5    88	 1
    5    72	 1
    5    73	 1
    5    74	 1
    6    33	 1
    6     9	 1
    6    86	 1
    6    32	 1
    6    70	 1
    6    71	 1
    6    53	 1
    6    54	 1
    6    55	 1
    6    41	 1
    6    40	 1
    7    36	 1
    7    35	 1
    7    34	 1
    7    85	 1
    7    31	 1
    7    52	 1
    7    39	 1
    7    38	 1
    8    33	 1
    8    37	 1
    8    87	 1
    9    85	 1
    9    31	 1
    9    52	 1
    9    14	 1
    9    21	 1
   10    86	 1
   10    12	 1
   10    13	 1
   11    86	 1
   11    15	 1
   11    56	 1
   11    57	 1
   11    29	 1
   11    22	 1
   11    89	 1
   12    14	 1
   12    21	 1
   13    16	 1
   13    20	 1
   13    30	 1
   13    23	 1
   13    63	 1
   13    64	 1
   14    29	 1
   14    22	 1
   14    89	 1
   14    17	 1
   14    58	 1
   14    19	 1
   14    62	 1
   15    21	 1
   15    18	 1
   15    59	 1
   15    61	 1
   16    56	 1
   16    57	 1
   16    19	 1
   16    62	 1
   16    60	 1
   17    20	 1
   17    61	 1
   18    58	 1
   18    62	 1
   19    59	 1
   20    56	 1
   20    57	 1
   20    58	 1
   20    60	 1
   21    56	 1
   21    57	 1
   21    25	 1
   21    26	 1
   21    24	 1
   22    30	 1
   22    28	 1
   22    27	 1
   22    65	 1
   23    29	 1
   23    89	 1
   23    68	 1
   23    69	 1
   23    66	 1
   23    67	 1
   24    63	 1
   24    64	 1
   24    28	 1
   24    27	 1
   24    65	 1
   25    63	 1
   25    64	 1
   25    28	 1
   25    27	 1
   25    65	 1
   26    63	 1
   26    64	 1
   29    63	 1
   29    64	 1
   30    89	 1
   31    86	 1
   31    37	 1
   31    87	 1
   32    52	 1
   33    88	 1
   33    85	 1
   34    75	 1
   34    76	 1
   34    77	 1
   35    75	 1
   35    76	 1
   35    77	 1
   37    52	 1
   37    88	 1
   37    42	 1
   38    87	 1
   38    41	 1
   38    40	 1
   39    87	 1
   39    43	 1
   39    78	 1
   39    79	 1
   40    42	 1
   41    44	 1
   41    48	 1
   42    45	 1
   42    80	 1
   42    47	 1
   42    84	 1
   43    46	 1
   43    81	 1
   43    83	 1
   44    78	 1
   44    79	 1
   44    47	 1
   44    84	 1
   44    82	 1
   45    48	 1
   45    83	 1
   46    80	 1
   46    84	 1
   47    81	 1
   48    78	 1
   48    79	 1
   48    80	 1
   48    82	 1
   49    85	 1
   50    85	 1
   51    85	 1
   52    86	 1
   52    87	 1
   52    70	 1
   52    71	 1
   53    88	 1
   54    88	 1
   55    88	 1
   58    59	 1
   59    60	 1
   60    61	 1
   61    62	 1
   63    89	 1
   64    89	 1
   65    68	 1
   65    69	 1
   65    66	 1
   65    67	 1
   66    68	 1
   66    69	 1
   67    68	 1
   67    69	 1
   70    72	 1
   70    73	 1
   70    74	 1
   71    72	 1
   71    73	 1
   71    74	 1
   80    81	 1
   81    82	 1
   82    83	 1
   83    84	 1
   85    86	 1
   87    88	 1

[ angles ]
;	ai	  aj	ak funct			c0			  c1			c2			  c3
   33     1     7	5 ;      SG3O2      NG301      CG311
   33     1     2	5 ;      SG3O2      NG301      CG311
    7     1     2	5 ;      CG311      NG301      CG311
    1     2     3	5 ;      NG301      CG311      CG331
    1     2     4	5 ;      NG301      CG311      CG311
    1     2    85	5 ;      NG301      CG311       HGA1
    3     2     4	5 ;      CG331      CG311      CG311
    3     2    85	5 ;      CG331      CG311       HGA1
    4     2    85	5 ;      CG311      CG311       HGA1
    2     3    49	5 ;      CG311      CG331       HGA3
    2     3    50	5 ;      CG311      CG331       HGA3
    2     3    51	5 ;      CG311      CG331       HGA3
   49     3    50	5 ;       HGA3      CG331       HGA3
   49     3    51	5 ;       HGA3      CG331       HGA3
   50     3    51	5 ;       HGA3      CG331       HGA3
    5     4     2	5 ;      CG311      CG311      CG311
    5     4     9	5 ;      CG311      CG311      CG2O1
    5     4    86	5 ;      CG311      CG311       HGA1
    2     4     9	5 ;      CG311      CG311      CG2O1
    2     4    86	5 ;      CG311      CG311       HGA1
    9     4    86	5 ;      CG2O1      CG311       HGA1
    6     5    31	5 ;      CG311      CG311      CG321
    6     5     4	5 ;      CG311      CG311      CG311
    6     5    52	5 ;      CG311      CG311       HGA1
   31     5     4	5 ;      CG321      CG311      CG311
   31     5    52	5 ;      CG321      CG311       HGA1
    4     5    52	5 ;      CG311      CG311       HGA1
   37     6     7	5 ;      CG2O1      CG311      CG311
   37     6     5	5 ;      CG2O1      CG311      CG311
   37     6    87	5 ;      CG2O1      CG311       HGA1
    7     6     5	5 ;      CG311      CG311      CG311
    7     6    87	5 ;      CG311      CG311       HGA1
    5     6    87	5 ;      CG311      CG311       HGA1
    8     7     1	5 ;      CG331      CG311      NG301
    8     7     6	5 ;      CG331      CG311      CG311
    8     7    88	5 ;      CG331      CG311       HGA1
    1     7     6	5 ;      NG301      CG311      CG311
    1     7    88	5 ;      NG301      CG311       HGA1
    6     7    88	5 ;      CG311      CG311       HGA1
    7     8    53	5 ;      CG311      CG331       HGA3
    7     8    54	5 ;      CG311      CG331       HGA3
    7     8    55	5 ;      CG311      CG331       HGA3
   53     8    54	5 ;       HGA3      CG331       HGA3
   53     8    55	5 ;       HGA3      CG331       HGA3
   54     8    55	5 ;       HGA3      CG331       HGA3
    4     9    11	5 ;      CG311      CG2O1      NG2P1
    4     9    10	5 ;      CG311      CG2O1      OG2D1
   11     9    10	5 ;      NG2P1      CG2O1      OG2D1
   12    11     9	5 ;       HGP2      NG2P1      CG2O1
   12    11    13	5 ;       HGP2      NG2P1     CG2DC1
    9    11    13	5 ;      CG2O1      NG2P1     CG2DC1
   11    13    14	5 ;      NG2P1     CG2DC1      CG321
   11    13    21	5 ;      NG2P1     CG2DC1      CG311
   14    13    21	5 ;      CG321     CG2DC1      CG311
   13    14    15	5 ;     CG2DC1      CG321     CG2R61
   13    14    56	5 ;     CG2DC1      CG321       HGA2
   13    14    57	5 ;     CG2DC1      CG321       HGA2
   15    14    56	5 ;     CG2R61      CG321       HGA2
   15    14    57	5 ;     CG2R61      CG321       HGA2
   56    14    57	5 ;       HGA2      CG321       HGA2
   14    15    16	5 ;      CG321     CG2R61     CG2R61
   14    15    20	5 ;      CG321     CG2R61     CG2R61
   16    15    20	5 ;     CG2R61     CG2R61     CG2R61
   15    16    17	5 ;     CG2R61     CG2R61     CG2R61
   15    16    58	5 ;     CG2R61     CG2R61      HGR61
   17    16    58	5 ;     CG2R61     CG2R61      HGR61
   16    17    18	5 ;     CG2R61     CG2R61     CG2R61
   16    17    59	5 ;     CG2R61     CG2R61      HGR61
   18    17    59	5 ;     CG2R61     CG2R61      HGR61
   17    18    19	5 ;     CG2R61     CG2R61     CG2R61
   17    18    60	5 ;     CG2R61     CG2R61      HGR61
   19    18    60	5 ;     CG2R61     CG2R61      HGR61
   20    19    18	5 ;     CG2R61     CG2R61     CG2R61
   20    19    61	5 ;     CG2R61     CG2R61      HGR61
   18    19    61	5 ;     CG2R61     CG2R61      HGR61
   15    20    19	5 ;     CG2R61     CG2R61     CG2R61
   15    20    62	5 ;     CG2R61     CG2R61      HGR61
   19    20    62	5 ;     CG2R61     CG2R61      HGR61
   13    21    29	5 ;     CG2DC1      CG311      OG311
   13    21    22	5 ;     CG2DC1      CG311      CG324
   13    21    89	5 ;     CG2DC1      CG311       HGA1
   29    21    22	5 ;      OG311      CG311      CG324
   29    21    89	5 ;      OG311      CG311       HGA1
   22    21    89	5 ;      CG324      CG311       HGA1
   21    22    23	5 ;      CG311      CG324      NG3P2
   21    22    63	5 ;      CG311      CG324       HGA2
   21    22    64	5 ;      CG311      CG324       HGA2
   23    22    63	5 ;      NG3P2      CG324       HGA2
   23    22    64	5 ;      NG3P2      CG324       HGA2
   63    22    64	5 ;       HGA2      CG324       HGA2
   25    23    26	5 ;       HGP2      NG3P2     CG3C31
   25    23    24	5 ;       HGP2      NG3P2       HGP2
   25    23    22	5 ;       HGP2      NG3P2      CG324
   26    23    24	5 ;     CG3C31      NG3P2       HGP2
   26    23    22	5 ;     CG3C31      NG3P2      CG324
   24    23    22	5 ;       HGP2      NG3P2      CG324
   28    26    27	5 ;     CG3C31     CG3C31     CG3C31
   28    26    23	5 ;     CG3C31     CG3C31      NG3P2
   28    26    65	5 ;     CG3C31     CG3C31       HGA1
   27    26    23	5 ;     CG3C31     CG3C31      NG3P2
   27    26    65	5 ;     CG3C31     CG3C31       HGA1
   23    26    65	5 ;      NG3P2     CG3C31       HGA1
   28    27    26	5 ;     CG3C31     CG3C31     CG3C31
   28    27    66	5 ;     CG3C31     CG3C31       HGA2
   28    27    67	5 ;     CG3C31     CG3C31       HGA2
   26    27    66	5 ;     CG3C31     CG3C31       HGA2
   26    27    67	5 ;     CG3C31     CG3C31       HGA2
   66    27    67	5 ;       HGA2     CG3C31       HGA2
   27    28    26	5 ;     CG3C31     CG3C31     CG3C31
   27    28    68	5 ;     CG3C31     CG3C31       HGA2
   27    28    69	5 ;     CG3C31     CG3C31       HGA2
   26    28    68	5 ;     CG3C31     CG3C31       HGA2
   26    28    69	5 ;     CG3C31     CG3C31       HGA2
   68    28    69	5 ;       HGA2     CG3C31       HGA2
   30    29    21	5 ;       HGP1      OG311      CG311
   32    31     5	5 ;      CG331      CG321      CG311
   32    31    70	5 ;      CG331      CG321       HGA2
   32    31    71	5 ;      CG331      CG321       HGA2
    5    31    70	5 ;      CG311      CG321       HGA2
    5    31    71	5 ;      CG311      CG321       HGA2
   70    31    71	5 ;       HGA2      CG321       HGA2
   31    32    72	5 ;      CG321      CG331       HGA3
   31    32    73	5 ;      CG321      CG331       HGA3
   31    32    74	5 ;      CG321      CG331       HGA3
   72    32    73	5 ;       HGA3      CG331       HGA3
   72    32    74	5 ;       HGA3      CG331       HGA3
   73    32    74	5 ;       HGA3      CG331       HGA3
   36    33    35	5 ;      CG331      SG3O2      OG2P1
   36    33    34	5 ;      CG331      SG3O2      OG2P1
   36    33     1	5 ;      CG331      SG3O2      NG301
   35    33    34	5 ;      OG2P1      SG3O2      OG2P1
   35    33     1	5 ;      OG2P1      SG3O2      NG301
   34    33     1	5 ;      OG2P1      SG3O2      NG301
   33    36    75	5 ;      SG3O2      CG331       HGA3
   33    36    76	5 ;      SG3O2      CG331       HGA3
   33    36    77	5 ;      SG3O2      CG331       HGA3
   75    36    76	5 ;       HGA3      CG331       HGA3
   75    36    77	5 ;       HGA3      CG331       HGA3
   76    36    77	5 ;       HGA3      CG331       HGA3
   39    37    38	5 ;      NG2S1      CG2O1      OG2D1
   39    37     6	5 ;      NG2S1      CG2O1      CG311
   38    37     6	5 ;      OG2D1      CG2O1      CG311
   41    39    40	5 ;      OG301      NG2S1       HGP1
   41    39    37	5 ;      OG301      NG2S1      CG2O1
   40    39    37	5 ;       HGP1      NG2S1      CG2O1
   42    41    39	5 ;      CG321      OG301      NG2S1
   41    42    43	5 ;      OG301      CG321     CG2R61
   41    42    78	5 ;      OG301      CG321       HGA2
   41    42    79	5 ;      OG301      CG321       HGA2
   43    42    78	5 ;     CG2R61      CG321       HGA2
   43    42    79	5 ;     CG2R61      CG321       HGA2
   78    42    79	5 ;       HGA2      CG321       HGA2
   42    43    44	5 ;      CG321     CG2R61     CG2R61
   42    43    48	5 ;      CG321     CG2R61     CG2R61
   44    43    48	5 ;     CG2R61     CG2R61     CG2R61
   43    44    45	5 ;     CG2R61     CG2R61     CG2R61
   43    44    80	5 ;     CG2R61     CG2R61      HGR61
   45    44    80	5 ;     CG2R61     CG2R61      HGR61
   44    45    46	5 ;     CG2R61     CG2R61     CG2R61
   44    45    81	5 ;     CG2R61     CG2R61      HGR61
   46    45    81	5 ;     CG2R61     CG2R61      HGR61
   45    46    47	5 ;     CG2R61     CG2R61     CG2R61
   45    46    82	5 ;     CG2R61     CG2R61      HGR61
   47    46    82	5 ;     CG2R61     CG2R61      HGR61
   48    47    46	5 ;     CG2R61     CG2R61     CG2R61
   48    47    83	5 ;     CG2R61     CG2R61      HGR61
   46    47    83	5 ;     CG2R61     CG2R61      HGR61
   43    48    47	5 ;     CG2R61     CG2R61     CG2R61
   43    48    84	5 ;     CG2R61     CG2R61      HGR61
   47    48    84	5 ;     CG2R61     CG2R61      HGR61

[ dihedrals ]
;	ai	  aj	ak	  al funct			  c0			c1			  c2			c3			  c4			c5
    7     1    33    36	 9 ;      CG311      NG301      SG3O2      CG331
    7     1    33    35	 9 ;      CG311      NG301      SG3O2      OG2P1
    7     1    33    34	 9 ;      CG311      NG301      SG3O2      OG2P1
    2     1    33    36	 9 ;      CG311      NG301      SG3O2      CG331
    2     1    33    35	 9 ;      CG311      NG301      SG3O2      OG2P1
    2     1    33    34	 9 ;      CG311      NG301      SG3O2      OG2P1
   33     1     7     8	 9 ;      SG3O2      NG301      CG311      CG331
   33     1     7     6	 9 ;      SG3O2      NG301      CG311      CG311
   33     1     7    88	 9 ;      SG3O2      NG301      CG311       HGA1
    2     1     7     8	 9 ;      CG311      NG301      CG311      CG331
    2     1     7     6	 9 ;      CG311      NG301      CG311      CG311
    2     1     7    88	 9 ;      CG311      NG301      CG311       HGA1
   33     1     2     3	 9 ;      SG3O2      NG301      CG311      CG331
   33     1     2     4	 9 ;      SG3O2      NG301      CG311      CG311
   33     1     2    85	 9 ;      SG3O2      NG301      CG311       HGA1
    7     1     2     3	 9 ;      CG311      NG301      CG311      CG331
    7     1     2     4	 9 ;      CG311      NG301      CG311      CG311
    7     1     2    85	 9 ;      CG311      NG301      CG311       HGA1
    1     2     3    49	 9 ;      NG301      CG311      CG331       HGA3
    1     2     3    50	 9 ;      NG301      CG311      CG331       HGA3
    1     2     3    51	 9 ;      NG301      CG311      CG331       HGA3
    4     2     3    49	 9 ;      CG311      CG311      CG331       HGA3
    4     2     3    50	 9 ;      CG311      CG311      CG331       HGA3
    4     2     3    51	 9 ;      CG311      CG311      CG331       HGA3
   85     2     3    49	 9 ;       HGA1      CG311      CG331       HGA3
   85     2     3    50	 9 ;       HGA1      CG311      CG331       HGA3
   85     2     3    51	 9 ;       HGA1      CG311      CG331       HGA3
    1     2     4     5	 9 ;      NG301      CG311      CG311      CG311
    1     2     4     9	 9 ;      NG301      CG311      CG311      CG2O1
    1     2     4    86	 9 ;      NG301      CG311      CG311       HGA1
    3     2     4     5	 9 ;      CG331      CG311      CG311      CG311
    3     2     4     9	 9 ;      CG331      CG311      CG311      CG2O1
    3     2     4    86	 9 ;      CG331      CG311      CG311       HGA1
   85     2     4     5	 9 ;       HGA1      CG311      CG311      CG311
   85     2     4     9	 9 ;       HGA1      CG311      CG311      CG2O1
   85     2     4    86	 9 ;       HGA1      CG311      CG311       HGA1
    2     4     5     6	 9 ;      CG311      CG311      CG311      CG311
    2     4     5    31	 9 ;      CG311      CG311      CG311      CG321
    2     4     5    52	 9 ;      CG311      CG311      CG311       HGA1
    9     4     5     6	 9 ;      CG2O1      CG311      CG311      CG311
    9     4     5    31	 9 ;      CG2O1      CG311      CG311      CG321
    9     4     5    52	 9 ;      CG2O1      CG311      CG311       HGA1
   86     4     5     6	 9 ;       HGA1      CG311      CG311      CG311
   86     4     5    31	 9 ;       HGA1      CG311      CG311      CG321
   86     4     5    52	 9 ;       HGA1      CG311      CG311       HGA1
    5     4     9    11	 9 ;      CG311      CG311      CG2O1      NG2P1
    5     4     9    10	 9 ;      CG311      CG311      CG2O1      OG2D1
    2     4     9    11	 9 ;      CG311      CG311      CG2O1      NG2P1
    2     4     9    10	 9 ;      CG311      CG311      CG2O1      OG2D1
   86     4     9    11	 9 ;       HGA1      CG311      CG2O1      NG2P1
   86     4     9    10	 9 ;       HGA1      CG311      CG2O1      OG2D1
   31     5     6    37	 9 ;      CG321      CG311      CG311      CG2O1
   31     5     6     7	 9 ;      CG321      CG311      CG311      CG311
   31     5     6    87	 9 ;      CG321      CG311      CG311       HGA1
    4     5     6    37	 9 ;      CG311      CG311      CG311      CG2O1
    4     5     6     7	 9 ;      CG311      CG311      CG311      CG311
    4     5     6    87	 9 ;      CG311      CG311      CG311       HGA1
   52     5     6    37	 9 ;       HGA1      CG311      CG311      CG2O1
   52     5     6     7	 9 ;       HGA1      CG311      CG311      CG311
   52     5     6    87	 9 ;       HGA1      CG311      CG311       HGA1
    6     5    31    32	 9 ;      CG311      CG311      CG321      CG331
    6     5    31    70	 9 ;      CG311      CG311      CG321       HGA2
    6     5    31    71	 9 ;      CG311      CG311      CG321       HGA2
    4     5    31    32	 9 ;      CG311      CG311      CG321      CG331
    4     5    31    70	 9 ;      CG311      CG311      CG321       HGA2
    4     5    31    71	 9 ;      CG311      CG311      CG321       HGA2
   52     5    31    32	 9 ;       HGA1      CG311      CG321      CG331
   52     5    31    70	 9 ;       HGA1      CG311      CG321       HGA2
   52     5    31    71	 9 ;       HGA1      CG311      CG321       HGA2
    7     6    37    39	 9 ;      CG311      CG311      CG2O1      NG2S1
    7     6    37    38	 9 ;      CG311      CG311      CG2O1      OG2D1
    5     6    37    39	 9 ;      CG311      CG311      CG2O1      NG2S1
    5     6    37    38	 9 ;      CG311      CG311      CG2O1      OG2D1
   87     6    37    39	 9 ;       HGA1      CG311      CG2O1      NG2S1
   87     6    37    38	 9 ;       HGA1      CG311      CG2O1      OG2D1
   37     6     7     8	 9 ;      CG2O1      CG311      CG311      CG331
   37     6     7     1	 9 ;      CG2O1      CG311      CG311      NG301
   37     6     7    88	 9 ;      CG2O1      CG311      CG311       HGA1
    5     6     7     8	 9 ;      CG311      CG311      CG311      CG331
    5     6     7     1	 9 ;      CG311      CG311      CG311      NG301
    5     6     7    88	 9 ;      CG311      CG311      CG311       HGA1
   87     6     7     8	 9 ;       HGA1      CG311      CG311      CG331
   87     6     7     1	 9 ;       HGA1      CG311      CG311      NG301
   87     6     7    88	 9 ;       HGA1      CG311      CG311       HGA1
    1     7     8    53	 9 ;      NG301      CG311      CG331       HGA3
    1     7     8    54	 9 ;      NG301      CG311      CG331       HGA3
    1     7     8    55	 9 ;      NG301      CG311      CG331       HGA3
    6     7     8    53	 9 ;      CG311      CG311      CG331       HGA3
    6     7     8    54	 9 ;      CG311      CG311      CG331       HGA3
    6     7     8    55	 9 ;      CG311      CG311      CG331       HGA3
   88     7     8    53	 9 ;       HGA1      CG311      CG331       HGA3
   88     7     8    54	 9 ;       HGA1      CG311      CG331       HGA3
   88     7     8    55	 9 ;       HGA1      CG311      CG331       HGA3
    4     9    11    12	 9 ;      CG311      CG2O1      NG2P1       HGP2
    4     9    11    13	 9 ;      CG311      CG2O1      NG2P1     CG2DC1
   10     9    11    12	 9 ;      OG2D1      CG2O1      NG2P1       HGP2
   10     9    11    13	 9 ;      OG2D1      CG2O1      NG2P1     CG2DC1
   12    11    13    14	 9 ;       HGP2      NG2P1     CG2DC1      CG321
   12    11    13    21	 9 ;       HGP2      NG2P1     CG2DC1      CG311
    9    11    13    14	 9 ;      CG2O1      NG2P1     CG2DC1      CG321
    9    11    13    21	 9 ;      CG2O1      NG2P1     CG2DC1      CG311
   11    13    14    15	 9 ;      NG2P1     CG2DC1      CG321     CG2R61
   11    13    14    56	 9 ;      NG2P1     CG2DC1      CG321       HGA2
   11    13    14    57	 9 ;      NG2P1     CG2DC1      CG321       HGA2
   21    13    14    15	 9 ;      CG311     CG2DC1      CG321     CG2R61
   21    13    14    56	 9 ;      CG311     CG2DC1      CG321       HGA2
   21    13    14    57	 9 ;      CG311     CG2DC1      CG321       HGA2
   11    13    21    29	 9 ;      NG2P1     CG2DC1      CG311      OG311
   11    13    21    22	 9 ;      NG2P1     CG2DC1      CG311      CG324
   11    13    21    89	 9 ;      NG2P1     CG2DC1      CG311       HGA1
   14    13    21    29	 9 ;      CG321     CG2DC1      CG311      OG311
   14    13    21    22	 9 ;      CG321     CG2DC1      CG311      CG324
   14    13    21    89	 9 ;      CG321     CG2DC1      CG311       HGA1
   13    14    15    16	 9 ;     CG2DC1      CG321     CG2R61     CG2R61
   13    14    15    20	 9 ;     CG2DC1      CG321     CG2R61     CG2R61
   56    14    15    16	 9 ;       HGA2      CG321     CG2R61     CG2R61
   56    14    15    20	 9 ;       HGA2      CG321     CG2R61     CG2R61
   57    14    15    16	 9 ;       HGA2      CG321     CG2R61     CG2R61
   57    14    15    20	 9 ;       HGA2      CG321     CG2R61     CG2R61
   14    15    16    17	 9 ;      CG321     CG2R61     CG2R61     CG2R61
   14    15    16    58	 9 ;      CG321     CG2R61     CG2R61      HGR61
   20    15    16    17	 9 ;     CG2R61     CG2R61     CG2R61     CG2R61
   20    15    16    58	 9 ;     CG2R61     CG2R61     CG2R61      HGR61
   14    15    20    19	 9 ;      CG321     CG2R61     CG2R61     CG2R61
   14    15    20    62	 9 ;      CG321     CG2R61     CG2R61      HGR61
   16    15    20    19	 9 ;     CG2R61     CG2R61     CG2R61     CG2R61
   16    15    20    62	 9 ;     CG2R61     CG2R61     CG2R61      HGR61
   15    16    17    18	 9 ;     CG2R61     CG2R61     CG2R61     CG2R61
   15    16    17    59	 9 ;     CG2R61     CG2R61     CG2R61      HGR61
   58    16    17    18	 9 ;      HGR61     CG2R61     CG2R61     CG2R61
   58    16    17    59	 9 ;      HGR61     CG2R61     CG2R61      HGR61
   16    17    18    19	 9 ;     CG2R61     CG2R61     CG2R61     CG2R61
   16    17    18    60	 9 ;     CG2R61     CG2R61     CG2R61      HGR61
   59    17    18    19	 9 ;      HGR61     CG2R61     CG2R61     CG2R61
   59    17    18    60	 9 ;      HGR61     CG2R61     CG2R61      HGR61
   17    18    19    20	 9 ;     CG2R61     CG2R61     CG2R61     CG2R61
   17    18    19    61	 9 ;     CG2R61     CG2R61     CG2R61      HGR61
   60    18    19    20	 9 ;      HGR61     CG2R61     CG2R61     CG2R61
   60    18    19    61	 9 ;      HGR61     CG2R61     CG2R61      HGR61
   18    19    20    15	 9 ;     CG2R61     CG2R61     CG2R61     CG2R61
   18    19    20    62	 9 ;     CG2R61     CG2R61     CG2R61      HGR61
   61    19    20    15	 9 ;      HGR61     CG2R61     CG2R61     CG2R61
   61    19    20    62	 9 ;      HGR61     CG2R61     CG2R61      HGR61
   13    21    29    30	 9 ;     CG2DC1      CG311      OG311       HGP1
   22    21    29    30	 9 ;      CG324      CG311      OG311       HGP1
   89    21    29    30	 9 ;       HGA1      CG311      OG311       HGP1
   13    21    22    23	 9 ;     CG2DC1      CG311      CG324      NG3P2
   13    21    22    63	 9 ;     CG2DC1      CG311      CG324       HGA2
   13    21    22    64	 9 ;     CG2DC1      CG311      CG324       HGA2
   29    21    22    23	 9 ;      OG311      CG311      CG324      NG3P2
   29    21    22    63	 9 ;      OG311      CG311      CG324       HGA2
   29    21    22    64	 9 ;      OG311      CG311      CG324       HGA2
   89    21    22    23	 9 ;       HGA1      CG311      CG324      NG3P2
   89    21    22    63	 9 ;       HGA1      CG311      CG324       HGA2
   89    21    22    64	 9 ;       HGA1      CG311      CG324       HGA2
   21    22    23    25	 9 ;      CG311      CG324      NG3P2       HGP2
   21    22    23    26	 9 ;      CG311      CG324      NG3P2     CG3C31
   21    22    23    24	 9 ;      CG311      CG324      NG3P2       HGP2
   63    22    23    25	 9 ;       HGA2      CG324      NG3P2       HGP2
   63    22    23    26	 9 ;       HGA2      CG324      NG3P2     CG3C31
   63    22    23    24	 9 ;       HGA2      CG324      NG3P2       HGP2
   64    22    23    25	 9 ;       HGA2      CG324      NG3P2       HGP2
   64    22    23    26	 9 ;       HGA2      CG324      NG3P2     CG3C31
   64    22    23    24	 9 ;       HGA2      CG324      NG3P2       HGP2
   25    23    26    28	 9 ;       HGP2      NG3P2     CG3C31     CG3C31
   25    23    26    27	 9 ;       HGP2      NG3P2     CG3C31     CG3C31
   25    23    26    65	 9 ;       HGP2      NG3P2     CG3C31       HGA1
   24    23    26    28	 9 ;       HGP2      NG3P2     CG3C31     CG3C31
   24    23    26    27	 9 ;       HGP2      NG3P2     CG3C31     CG3C31
   24    23    26    65	 9 ;       HGP2      NG3P2     CG3C31       HGA1
   22    23    26    28	 9 ;      CG324      NG3P2     CG3C31     CG3C31
   22    23    26    27	 9 ;      CG324      NG3P2     CG3C31     CG3C31
   22    23    26    65	 9 ;      CG324      NG3P2     CG3C31       HGA1
   27    26    28    68	 9 ;     CG3C31     CG3C31     CG3C31       HGA2
   27    26    28    69	 9 ;     CG3C31     CG3C31     CG3C31       HGA2
   23    26    28    27	 9 ;      NG3P2     CG3C31     CG3C31     CG3C31
   23    26    28    68	 9 ;      NG3P2     CG3C31     CG3C31       HGA2
   23    26    28    69	 9 ;      NG3P2     CG3C31     CG3C31       HGA2
   65    26    28    27	 9 ;       HGA1     CG3C31     CG3C31     CG3C31
   65    26    28    68	 9 ;       HGA1     CG3C31     CG3C31       HGA2
   65    26    28    69	 9 ;       HGA1     CG3C31     CG3C31       HGA2
   28    26    27    66	 9 ;     CG3C31     CG3C31     CG3C31       HGA2
   28    26    27    67	 9 ;     CG3C31     CG3C31     CG3C31       HGA2
   23    26    27    28	 9 ;      NG3P2     CG3C31     CG3C31     CG3C31
   23    26    27    66	 9 ;      NG3P2     CG3C31     CG3C31       HGA2
   23    26    27    67	 9 ;      NG3P2     CG3C31     CG3C31       HGA2
   65    26    27    28	 9 ;       HGA1     CG3C31     CG3C31     CG3C31
   65    26    27    66	 9 ;       HGA1     CG3C31     CG3C31       HGA2
   65    26    27    67	 9 ;       HGA1     CG3C31     CG3C31       HGA2
   26    27    28    68	 9 ;     CG3C31     CG3C31     CG3C31       HGA2
   26    27    28    69	 9 ;     CG3C31     CG3C31     CG3C31       HGA2
   66    27    28    26	 9 ;       HGA2     CG3C31     CG3C31     CG3C31
   66    27    28    68	 9 ;       HGA2     CG3C31     CG3C31       HGA2
   66    27    28    69	 9 ;       HGA2     CG3C31     CG3C31       HGA2
   67    27    28    26	 9 ;       HGA2     CG3C31     CG3C31     CG3C31
   67    27    28    68	 9 ;       HGA2     CG3C31     CG3C31       HGA2
   67    27    28    69	 9 ;       HGA2     CG3C31     CG3C31       HGA2
    5    31    32    72	 9 ;      CG311      CG321      CG331       HGA3
    5    31    32    73	 9 ;      CG311      CG321      CG331       HGA3
    5    31    32    74	 9 ;      CG311      CG321      CG331       HGA3
   70    31    32    72	 9 ;       HGA2      CG321      CG331       HGA3
   70    31    32    73	 9 ;       HGA2      CG321      CG331       HGA3
   70    31    32    74	 9 ;       HGA2      CG321      CG331       HGA3
   71    31    32    72	 9 ;       HGA2      CG321      CG331       HGA3
   71    31    32    73	 9 ;       HGA2      CG321      CG331       HGA3
   71    31    32    74	 9 ;       HGA2      CG321      CG331       HGA3
   35    33    36    75	 9 ;      OG2P1      SG3O2      CG331       HGA3
   35    33    36    76	 9 ;      OG2P1      SG3O2      CG331       HGA3
   35    33    36    77	 9 ;      OG2P1      SG3O2      CG331       HGA3
   34    33    36    75	 9 ;      OG2P1      SG3O2      CG331       HGA3
   34    33    36    76	 9 ;      OG2P1      SG3O2      CG331       HGA3
   34    33    36    77	 9 ;      OG2P1      SG3O2      CG331       HGA3
    1    33    36    75	 9 ;      NG301      SG3O2      CG331       HGA3
    1    33    36    76	 9 ;      NG301      SG3O2      CG331       HGA3
    1    33    36    77	 9 ;      NG301      SG3O2      CG331       HGA3
   38    37    39    41	 9 ;      OG2D1      CG2O1      NG2S1      OG301
   38    37    39    40	 9 ;      OG2D1      CG2O1      NG2S1       HGP1
    6    37    39    41	 9 ;      CG311      CG2O1      NG2S1      OG301
    6    37    39    40	 9 ;      CG311      CG2O1      NG2S1       HGP1
   40    39    41    42	 9 ;       HGP1      NG2S1      OG301      CG321
   37    39    41    42	 9 ;      CG2O1      NG2S1      OG301      CG321
   39    41    42    43	 9 ;      NG2S1      OG301      CG321     CG2R61
   39    41    42    78	 9 ;      NG2S1      OG301      CG321       HGA2
   39    41    42    79	 9 ;      NG2S1      OG301      CG321       HGA2
   41    42    43    44	 9 ;      OG301      CG321     CG2R61     CG2R61
   41    42    43    48	 9 ;      OG301      CG321     CG2R61     CG2R61
   78    42    43    44	 9 ;       HGA2      CG321     CG2R61     CG2R61
   78    42    43    48	 9 ;       HGA2      CG321     CG2R61     CG2R61
   79    42    43    44	 9 ;       HGA2      CG321     CG2R61     CG2R61
   79    42    43    48	 9 ;       HGA2      CG321     CG2R61     CG2R61
   42    43    44    45	 9 ;      CG321     CG2R61     CG2R61     CG2R61
   42    43    44    80	 9 ;      CG321     CG2R61     CG2R61      HGR61
   48    43    44    45	 9 ;     CG2R61     CG2R61     CG2R61     CG2R61
   48    43    44    80	 9 ;     CG2R61     CG2R61     CG2R61      HGR61
   42    43    48    47	 9 ;      CG321     CG2R61     CG2R61     CG2R61
   42    43    48    84	 9 ;      CG321     CG2R61     CG2R61      HGR61
   44    43    48    47	 9 ;     CG2R61     CG2R61     CG2R61     CG2R61
   44    43    48    84	 9 ;     CG2R61     CG2R61     CG2R61      HGR61
   43    44    45    46	 9 ;     CG2R61     CG2R61     CG2R61     CG2R61
   43    44    45    81	 9 ;     CG2R61     CG2R61     CG2R61      HGR61
   80    44    45    46	 9 ;      HGR61     CG2R61     CG2R61     CG2R61
   80    44    45    81	 9 ;      HGR61     CG2R61     CG2R61      HGR61
   44    45    46    47	 9 ;     CG2R61     CG2R61     CG2R61     CG2R61
   44    45    46    82	 9 ;     CG2R61     CG2R61     CG2R61      HGR61
   81    45    46    47	 9 ;      HGR61     CG2R61     CG2R61     CG2R61
   81    45    46    82	 9 ;      HGR61     CG2R61     CG2R61      HGR61
   45    46    47    48	 9 ;     CG2R61     CG2R61     CG2R61     CG2R61
   45    46    47    83	 9 ;     CG2R61     CG2R61     CG2R61      HGR61
   82    46    47    48	 9 ;      HGR61     CG2R61     CG2R61     CG2R61
   82    46    47    83	 9 ;      HGR61     CG2R61     CG2R61      HGR61
   46    47    48    43	 9 ;     CG2R61     CG2R61     CG2R61     CG2R61
   46    47    48    84	 9 ;     CG2R61     CG2R61     CG2R61      HGR61
   83    47    48    43	 9 ;      HGR61     CG2R61     CG2R61     CG2R61
   83    47    48    84	 9 ;      HGR61     CG2R61     CG2R61      HGR61

[ dihedrals ]
;	ai	  aj	ak	  al funct			  c0			c1			  c2			c3
    9     4    11    10	 2
   13    21    14    11	 2
   37     6    39    38	 2

