Guyana Rwanda Oman Macau Angola Cameroon Senegal
   89
    1LIG     N1    1  -1.668   0.581  -1.691
    1LIG     C1    2  -1.793   0.506  -1.681
    1LIG     C2    3  -1.910   0.537  -1.771
    1LIG     C3    4  -1.793   0.395  -1.603
    1LIG     C4    5  -1.660   0.321  -1.585
    1LIG     C5    6  -1.544   0.418  -1.566
    1LIG     C6    7  -1.550   0.547  -1.609
    1LIG     C7    8  -1.442   0.649  -1.583
    1LIG     C8    9  -1.927   0.359  -1.536
    1LIG     O1   10  -1.978   0.432  -1.451
    1LIG     N2   11  -1.990   0.243  -1.570
    1LIG     H1   12  -1.942   0.186  -1.638
    1LIG     C9   13  -2.112   0.180  -1.509
    1LIG    C10   14  -2.091   0.126  -1.365
    1LIG    C11   15  -2.143  -0.003  -1.308
    1LIG    C12   16  -2.176  -0.105  -1.401
    1LIG    C13   17  -2.197  -0.237  -1.360
    1LIG    C14   18  -2.187  -0.270  -1.226
    1LIG    C15   19  -2.159  -0.170  -1.132
    1LIG    C16   20  -2.138  -0.037  -1.173
    1LIG    C17   21  -2.262   0.211  -1.550
    1LIG    C18   22  -2.359   0.308  -1.474
    1LIG     N3   23  -2.282   0.441  -1.463
    1LIG     H2   24  -2.282   0.459  -1.360
    1LIG     H3   25  -2.183   0.425  -1.484
    1LIG    C19   26  -2.326   0.566  -1.529
    1LIG    C20   27  -2.304   0.598  -1.673
    1LIG    C21   28  -2.209   0.654  -1.572
    1LIG     O2   29  -2.277   0.239  -1.690
    1LIG     H4   30  -2.301   0.334  -1.700
    1LIG    C22   31  -1.622   0.238  -1.712
    1LIG    C23   32  -1.710   0.255  -1.834
    1LIG      S   33  -1.669   0.731  -1.780
    1LIG     O3   34  -1.669   0.843  -1.687
    1LIG     O4   35  -1.768   0.730  -1.886
    1LIG    C24   36  -1.509   0.728  -1.860
    1LIG    C25   37  -1.408   0.367  -1.524
    1LIG     O5   38  -1.387   0.335  -1.406
    1LIG     N4   39  -1.308   0.359  -1.619
    1LIG     H5   40  -1.306   0.426  -1.695
    1LIG     O6   41  -1.177   0.331  -1.567
    1LIG    C26   42  -1.128   0.208  -1.623
    1LIG    C27   43  -1.132   0.097  -1.520
    1LIG    C28   44  -1.051   0.103  -1.405
    1LIG    C29   45  -1.053  -0.001  -1.311
    1LIG    C30   46  -1.135  -0.112  -1.330
    1LIG    C31   47  -1.218  -0.118  -1.442
    1LIG    C32   48  -1.216  -0.014  -1.536
    1LIG    HC1   49  -1.993   0.470  -1.748
    1LIG    HC2   50  -1.941   0.640  -1.755
    1LIG    HC3   51  -1.880   0.524  -1.875
    1LIG     HC   52  -1.666   0.255  -1.498
    1LIG    HC4   53  -1.403   0.635  -1.482
    1LIG    HC5   54  -1.483   0.749  -1.593
    1LIG    HC6   55  -1.361   0.635  -1.655
    1LIG    HC7   56  -2.130   0.204  -1.300
    1LIG    HC8   57  -1.983   0.124  -1.349
    1LIG    HC9   58  -2.185  -0.080  -1.505
    1LIG   HC10   59  -2.221  -0.313  -1.433
    1LIG   HC11   60  -2.200  -0.372  -1.194
    1LIG   HC12   61  -2.155  -0.195  -1.027
    1LIG   HC13   62  -2.118   0.039  -1.099
    1LIG   HC14   63  -2.382   0.268  -1.375
    1LIG   HC15   64  -2.450   0.322  -1.532
    1LIG   HC16   65  -2.408   0.619  -1.480
    1LIG   HC17   66  -2.374   0.665  -1.725
    1LIG   HC18   67  -2.265   0.516  -1.734
    1LIG   HC19   68  -2.210   0.761  -1.550
    1LIG   HC20   69  -2.111   0.606  -1.569
    1LIG   HC21   70  -1.624   0.132  -1.684
    1LIG   HC22   71  -1.520   0.264  -1.740
    1LIG   HC23   72  -1.694   0.172  -1.903
    1LIG   HC24   73  -1.815   0.257  -1.803
    1LIG   HC25   74  -1.686   0.349  -1.884
    1LIG   HC26   75  -1.521   0.756  -1.965
    1LIG   HC27   76  -1.467   0.627  -1.854
    1LIG   HC28   77  -1.442   0.798  -1.811
    1LIG   HC29   78  -1.025   0.223  -1.656
    1LIG   HC30   79  -1.190   0.180  -1.708
    1LIG   HC31   80  -0.987   0.188  -1.389
    1LIG   HC32   81  -0.990   0.005  -1.223
    1LIG   HC33   82  -1.135  -0.192  -1.258
    1LIG   HC34   83  -1.283  -0.203  -1.457
    1LIG   HC35   84  -1.281  -0.019  -1.623
    1LIG    H42   85  -1.831   0.569  -1.601
    1LIG    H43   86  -1.817   0.333  -1.689
    1LIG    H44   87  -1.574   0.444  -1.465
    1LIG    H45   88  -1.603   0.576  -1.518
    1LIG    H46   89  -2.311   0.114  -1.539
   0.00000   0.00000   0.00000
