; Created by cgenff_charmm2gmx.py

[ moleculetype ]
; Name			   nrexcl
LIG				 3

[ atoms ]
;	 nr		  type	resnr residue  atom   cgnr	   charge		mass  typeB    chargeB		massB
; residue	 1 LIG rtp LIG q	qsum
     1      CG311      1    LIG     C1      1      0.010     12.011   ;
     2      NG2S1      1    LIG     N1      2     -0.226     14.007   ;
     3      CG2O1      1    LIG     C2      3      0.282     12.011   ;
     4      OG2D1      1    LIG     O1      4     -0.463     15.999   ;
     5       HGP1      1    LIG     H1      5      0.262      1.008   ;
     6     CG2R61      1    LIG     C3      6     -0.126     12.011   ;
     7     CG2R61      1    LIG     C4      7     -0.153     12.011   ;
     8     CG2R61      1    LIG     C5      8      0.166     12.011   ;
     9      NG301      1    LIG     N2      9     -0.294     14.007   ;
    10     CG2RC0      1    LIG     C6     10      0.174     12.011   ;
    11      SG3O2      1    LIG      S     11      0.439     32.060   ;
    12      CG331      1    LIG     C7     12     -0.055     12.011   ;
    13      OG2P1      1    LIG     O2     13     -0.374     15.999   ;
    14      OG2P1      1    LIG     O3     14     -0.374     15.999   ;
    15      CG321      1    LIG     C8     15      0.085     12.011   ;
    16      CG321      1    LIG     C9     16     -0.173     12.011   ;
    17     CG2R51      1    LIG    C10     17     -0.141     12.011   ;
    18     CG2R51      1    LIG    C11     18     -0.130     12.011   ;
    19     NG2R51      1    LIG     N3     19     -0.061     14.007   ;
    20     CG2RC0      1    LIG    C12     20      0.193     12.011   ;
    21     CG2R61      1    LIG    C13     21     -0.202     12.011   ;
    22      CG321      1    LIG    C14     22     -0.225     12.011   ;
    23      CG331      1    LIG    C15     23     -0.272     12.011   ;
    24      CG321      1    LIG    C16     24     -0.111     12.011   ;
    25     CG2R61      1    LIG    C17     25     -0.019     12.011   ;
    26     CG2R61      1    LIG    C18     26     -0.123     12.011   ;
    27     CG2R61      1    LIG    C19     27     -0.112     12.011   ;
    28     CG2R61      1    LIG    C20     28     -0.116     12.011   ;
    29     CG2R61      1    LIG    C21     29     -0.112     12.011   ;
    30     CG2R61      1    LIG    C22     30     -0.123     12.011   ;
    31      CG311      1    LIG    C23     31      0.094     12.011   ;
    32      CG324      1    LIG    C24     32      0.177     12.011   ;
    33      NG3P2      1    LIG     N4     33     -0.405     14.007   ;
    34       HGP2      1    LIG     H2     34      0.337      1.008   ;
    35       HGP2      1    LIG     H3     35      0.337      1.008   ;
    36      CG324      1    LIG    C25     36      0.144     12.011   ;
    37      CG312      1    LIG    C26     37      0.555     12.011   ;
    38       FGA2      1    LIG     F1     38     -0.223     18.998   ;
    39       FGA2      1    LIG     F2     39     -0.223     18.998   ;
    40      CG302      1    LIG    C27     40      0.344     12.011   ;
    41       FGA3      1    LIG     F3     41     -0.135     18.998   ;
    42       FGA3      1    LIG     F4     42     -0.135     18.998   ;
    43       FGA3      1    LIG     F5     43     -0.135     18.998   ;
    44      OG311      1    LIG     O4     44     -0.625     15.999   ;
    45       HGP1      1    LIG     H4     45      0.415      1.008   ;
    46       HGA1      1    LIG     H5     46      0.090      1.008   ;
    47      HGR61      1    LIG     H6     47      0.134      1.008   ;
    48       HGA3      1    LIG     H7     48      0.090      1.008   ;
    49       HGA3      1    LIG     H8     49      0.090      1.008   ;
    50       HGA3      1    LIG     H9     50      0.090      1.008   ;
    51       HGA2      1    LIG    H10     51      0.090      1.008   ;
    52       HGA2      1    LIG    H11     52      0.090      1.008   ;
    53       HGA2      1    LIG    H12     53      0.090      1.008   ;
    54       HGA2      1    LIG    H13     54      0.090      1.008   ;
    55      HGR52      1    LIG    H14     55      0.154      1.008   ;
    56      HGR61      1    LIG    H15     56      0.184      1.008   ;
    57       HGA2      1    LIG    H16     57      0.090      1.008   ;
    58       HGA2      1    LIG    H17     58      0.090      1.008   ;
    59       HGA3      1    LIG    H18     59      0.090      1.008   ;
    60       HGA3      1    LIG    H19     60      0.090      1.008   ;
    61       HGA3      1    LIG    H20     61      0.090      1.008   ;
    62       HGA2      1    LIG    H21     62      0.090      1.008   ;
    63       HGA2      1    LIG    H22     63      0.090      1.008   ;
    64      HGR61      1    LIG    H23     64      0.116      1.008   ;
    65      HGR61      1    LIG    H24     65      0.116      1.008   ;
    66      HGR61      1    LIG    H25     66      0.116      1.008   ;
    67      HGR61      1    LIG    H26     67      0.116      1.008   ;
    68      HGR61      1    LIG    H27     68      0.116      1.008   ;
    69       HGA1      1    LIG    H28     69      0.090      1.008   ;
    70       HGA2      1    LIG    H29     70      0.090      1.008   ;
    71       HGA2      1    LIG    H30     71      0.090      1.008   ;
    72       HGA2      1    LIG    H31     72      0.090      1.008   ;
    73       HGA2      1    LIG    H32     73      0.090      1.008   ;

[ bonds ]
;	ai	  aj funct			  c0			c1			  c2			c3
    1    31	 1 ;       CG311      CG311
    1    24	 1 ;       CG311      CG321
    1     2	 1 ;       CG311      NG2S1
    1    46	 1 ;       CG311       HGA1
    2     5	 1 ;       NG2S1       HGP1
    2     3	 1 ;       NG2S1      CG2O1
    3     4	 1 ;       CG2O1      OG2D1
    3     6	 1 ;       CG2O1     CG2R61
    6     7	 1 ;      CG2R61     CG2R61
    6    21	 1 ;      CG2R61     CG2R61
    7     8	 1 ;      CG2R61     CG2R61
    7    47	 1 ;      CG2R61      HGR61
    8     9	 1 ;      CG2R61      NG301
    8    10	 1 ;      CG2R61     CG2RC0
    9    12	 1 ;       NG301      CG331
    9    11	 1 ;       NG301      SG3O2
   10    20	 1 ;      CG2RC0     CG2RC0
   10    17	 1 ;      CG2RC0     CG2R51
   11    13	 1 ;       SG3O2      OG2P1
   11    14	 1 ;       SG3O2      OG2P1
   11    15	 1 ;       SG3O2      CG321
   12    48	 1 ;       CG331       HGA3
   12    49	 1 ;       CG331       HGA3
   12    50	 1 ;       CG331       HGA3
   15    16	 1 ;       CG321      CG321
   15    51	 1 ;       CG321       HGA2
   15    52	 1 ;       CG321       HGA2
   16    17	 1 ;       CG321     CG2R51
   16    53	 1 ;       CG321       HGA2
   16    54	 1 ;       CG321       HGA2
   17    18	 1 ;      CG2R51     CG2R51
   18    19	 1 ;      CG2R51     NG2R51
   18    55	 1 ;      CG2R51      HGR52
   19    20	 1 ;      NG2R51     CG2RC0
   19    22	 1 ;      NG2R51      CG321
   20    21	 1 ;      CG2RC0     CG2R61
   21    56	 1 ;      CG2R61      HGR61
   22    23	 1 ;       CG321      CG331
   22    57	 1 ;       CG321       HGA2
   22    58	 1 ;       CG321       HGA2
   23    59	 1 ;       CG331       HGA3
   23    60	 1 ;       CG331       HGA3
   23    61	 1 ;       CG331       HGA3
   24    25	 1 ;       CG321     CG2R61
   24    62	 1 ;       CG321       HGA2
   24    63	 1 ;       CG321       HGA2
   25    30	 1 ;      CG2R61     CG2R61
   25    26	 1 ;      CG2R61     CG2R61
   26    27	 1 ;      CG2R61     CG2R61
   26    64	 1 ;      CG2R61      HGR61
   27    28	 1 ;      CG2R61     CG2R61
   27    65	 1 ;      CG2R61      HGR61
   28    29	 1 ;      CG2R61     CG2R61
   28    66	 1 ;      CG2R61      HGR61
   29    30	 1 ;      CG2R61     CG2R61
   29    67	 1 ;      CG2R61      HGR61
   30    68	 1 ;      CG2R61      HGR61
   31    44	 1 ;       CG311      OG311
   31    32	 1 ;       CG311      CG324
   31    69	 1 ;       CG311       HGA1
   32    33	 1 ;       CG324      NG3P2
   32    70	 1 ;       CG324       HGA2
   32    71	 1 ;       CG324       HGA2
   33    35	 1 ;       NG3P2       HGP2
   33    36	 1 ;       NG3P2      CG324
   33    34	 1 ;       NG3P2       HGP2
   36    37	 1 ;       CG324      CG312
   36    72	 1 ;       CG324       HGA2
   36    73	 1 ;       CG324       HGA2
   37    39	 1 ;       CG312       FGA2
   37    38	 1 ;       CG312       FGA2
   37    40	 1 ;       CG312      CG302
   40    43	 1 ;       CG302       FGA3
   40    42	 1 ;       CG302       FGA3
   40    41	 1 ;       CG302       FGA3
   44    45	 1 ;       OG311       HGP1

[ pairs ]
;	ai	  aj funct			  c0			c1			  c2			c3
    1     4	 1
    1     6	 1
    1    30	 1
    1    26	 1
    1    45	 1
    1    33	 1
    1    70	 1
    1    71	 1
    2    44	 1
    2    32	 1
    2    69	 1
    2    25	 1
    2    62	 1
    2    63	 1
    2     7	 1
    2    21	 1
    3    31	 1
    3    24	 1
    3    46	 1
    3     8	 1
    3    47	 1
    3    20	 1
    3    56	 1
    4     5	 1
    4     7	 1
    4    21	 1
    5    31	 1
    5    24	 1
    5    46	 1
    5     6	 1
    6     9	 1
    6    10	 1
    6    19	 1
    7    20	 1
    7    56	 1
    7    12	 1
    7    11	 1
    7    17	 1
    8    21	 1
    8    48	 1
    8    49	 1
    8    50	 1
    8    13	 1
    8    14	 1
    8    15	 1
    8    19	 1
    8    16	 1
    8    18	 1
    9    47	 1
    9    20	 1
    9    17	 1
    9    16	 1
    9    51	 1
    9    52	 1
   10    47	 1
   10    12	 1
   10    11	 1
   10    15	 1
   10    53	 1
   10    54	 1
   10    55	 1
   10    22	 1
   10    56	 1
   11    48	 1
   11    49	 1
   11    50	 1
   11    17	 1
   11    53	 1
   11    54	 1
   12    13	 1
   12    14	 1
   12    15	 1
   13    16	 1
   13    51	 1
   13    52	 1
   14    16	 1
   14    51	 1
   14    52	 1
   15    18	 1
   16    20	 1
   16    19	 1
   16    55	 1
   17    21	 1
   17    51	 1
   17    52	 1
   17    22	 1
   18    53	 1
   18    54	 1
   18    21	 1
   18    23	 1
   18    57	 1
   18    58	 1
   19    56	 1
   19    59	 1
   19    60	 1
   19    61	 1
   20    55	 1
   20    23	 1
   20    57	 1
   20    58	 1
   21    47	 1
   21    22	 1
   22    55	 1
   24    44	 1
   24    32	 1
   24    69	 1
   24    29	 1
   24    68	 1
   24    27	 1
   24    64	 1
   25    31	 1
   25    46	 1
   25    28	 1
   25    65	 1
   25    67	 1
   26    62	 1
   26    63	 1
   26    29	 1
   26    68	 1
   26    66	 1
   27    30	 1
   27    67	 1
   28    64	 1
   28    68	 1
   29    65	 1
   30    62	 1
   30    63	 1
   30    64	 1
   30    66	 1
   31    62	 1
   31    63	 1
   31    35	 1
   31    36	 1
   31    34	 1
   32    46	 1
   32    45	 1
   32    37	 1
   32    72	 1
   32    73	 1
   33    44	 1
   33    69	 1
   33    39	 1
   33    38	 1
   33    40	 1
   34    70	 1
   34    71	 1
   34    37	 1
   34    72	 1
   34    73	 1
   35    70	 1
   35    71	 1
   35    37	 1
   35    72	 1
   35    73	 1
   36    70	 1
   36    71	 1
   36    43	 1
   36    42	 1
   36    41	 1
   38    72	 1
   38    73	 1
   38    43	 1
   38    42	 1
   38    41	 1
   39    72	 1
   39    73	 1
   39    43	 1
   39    42	 1
   39    41	 1
   40    72	 1
   40    73	 1
   44    46	 1
   44    70	 1
   44    71	 1
   45    69	 1
   46    69	 1
   46    62	 1
   46    63	 1
   51    53	 1
   51    54	 1
   52    53	 1
   52    54	 1
   57    59	 1
   57    60	 1
   57    61	 1
   58    59	 1
   58    60	 1
   58    61	 1
   64    65	 1
   65    66	 1
   66    67	 1
   67    68	 1
   69    70	 1
   69    71	 1

[ angles ]
;	ai	  aj	ak funct			c0			  c1			c2			  c3
   31     1    24	5 ;      CG311      CG311      CG321
   31     1     2	5 ;      CG311      CG311      NG2S1
   31     1    46	5 ;      CG311      CG311       HGA1
   24     1     2	5 ;      CG321      CG311      NG2S1
   24     1    46	5 ;      CG321      CG311       HGA1
    2     1    46	5 ;      NG2S1      CG311       HGA1
    1     2     5	5 ;      CG311      NG2S1       HGP1
    1     2     3	5 ;      CG311      NG2S1      CG2O1
    5     2     3	5 ;       HGP1      NG2S1      CG2O1
    2     3     4	5 ;      NG2S1      CG2O1      OG2D1
    2     3     6	5 ;      NG2S1      CG2O1     CG2R61
    4     3     6	5 ;      OG2D1      CG2O1     CG2R61
    3     6     7	5 ;      CG2O1     CG2R61     CG2R61
    3     6    21	5 ;      CG2O1     CG2R61     CG2R61
    7     6    21	5 ;     CG2R61     CG2R61     CG2R61
    8     7     6	5 ;     CG2R61     CG2R61     CG2R61
    8     7    47	5 ;     CG2R61     CG2R61      HGR61
    6     7    47	5 ;     CG2R61     CG2R61      HGR61
    7     8     9	5 ;     CG2R61     CG2R61      NG301
    7     8    10	5 ;     CG2R61     CG2R61     CG2RC0
    9     8    10	5 ;      NG301     CG2R61     CG2RC0
   12     9    11	5 ;      CG331      NG301      SG3O2
   12     9     8	5 ;      CG331      NG301     CG2R61
   11     9     8	5 ;      SG3O2      NG301     CG2R61
    8    10    20	5 ;     CG2R61     CG2RC0     CG2RC0
    8    10    17	5 ;     CG2R61     CG2RC0     CG2R51
   20    10    17	5 ;     CG2RC0     CG2RC0     CG2R51
   13    11     9	5 ;      OG2P1      SG3O2      NG301
   13    11    14	5 ;      OG2P1      SG3O2      OG2P1
   13    11    15	5 ;      OG2P1      SG3O2      CG321
    9    11    14	5 ;      NG301      SG3O2      OG2P1
    9    11    15	5 ;      NG301      SG3O2      CG321
   14    11    15	5 ;      OG2P1      SG3O2      CG321
    9    12    48	5 ;      NG301      CG331       HGA3
    9    12    49	5 ;      NG301      CG331       HGA3
    9    12    50	5 ;      NG301      CG331       HGA3
   48    12    49	5 ;       HGA3      CG331       HGA3
   48    12    50	5 ;       HGA3      CG331       HGA3
   49    12    50	5 ;       HGA3      CG331       HGA3
   11    15    16	5 ;      SG3O2      CG321      CG321
   11    15    51	5 ;      SG3O2      CG321       HGA2
   11    15    52	5 ;      SG3O2      CG321       HGA2
   16    15    51	5 ;      CG321      CG321       HGA2
   16    15    52	5 ;      CG321      CG321       HGA2
   51    15    52	5 ;       HGA2      CG321       HGA2
   15    16    17	5 ;      CG321      CG321     CG2R51
   15    16    53	5 ;      CG321      CG321       HGA2
   15    16    54	5 ;      CG321      CG321       HGA2
   17    16    53	5 ;     CG2R51      CG321       HGA2
   17    16    54	5 ;     CG2R51      CG321       HGA2
   53    16    54	5 ;       HGA2      CG321       HGA2
   10    17    16	5 ;     CG2RC0     CG2R51      CG321
   10    17    18	5 ;     CG2RC0     CG2R51     CG2R51
   16    17    18	5 ;      CG321     CG2R51     CG2R51
   17    18    19	5 ;     CG2R51     CG2R51     NG2R51
   17    18    55	5 ;     CG2R51     CG2R51      HGR52
   19    18    55	5 ;     NG2R51     CG2R51      HGR52
   20    19    18	5 ;     CG2RC0     NG2R51     CG2R51
   20    19    22	5 ;     CG2RC0     NG2R51      CG321
   18    19    22	5 ;     CG2R51     NG2R51      CG321
   21    20    10	5 ;     CG2R61     CG2RC0     CG2RC0
   21    20    19	5 ;     CG2R61     CG2RC0     NG2R51
   10    20    19	5 ;     CG2RC0     CG2RC0     NG2R51
    6    21    20	5 ;     CG2R61     CG2R61     CG2RC0
    6    21    56	5 ;     CG2R61     CG2R61      HGR61
   20    21    56	5 ;     CG2RC0     CG2R61      HGR61
   19    22    23	5 ;     NG2R51      CG321      CG331
   19    22    57	5 ;     NG2R51      CG321       HGA2
   19    22    58	5 ;     NG2R51      CG321       HGA2
   23    22    57	5 ;      CG331      CG321       HGA2
   23    22    58	5 ;      CG331      CG321       HGA2
   57    22    58	5 ;       HGA2      CG321       HGA2
   22    23    59	5 ;      CG321      CG331       HGA3
   22    23    60	5 ;      CG321      CG331       HGA3
   22    23    61	5 ;      CG321      CG331       HGA3
   59    23    60	5 ;       HGA3      CG331       HGA3
   59    23    61	5 ;       HGA3      CG331       HGA3
   60    23    61	5 ;       HGA3      CG331       HGA3
    1    24    25	5 ;      CG311      CG321     CG2R61
    1    24    62	5 ;      CG311      CG321       HGA2
    1    24    63	5 ;      CG311      CG321       HGA2
   25    24    62	5 ;     CG2R61      CG321       HGA2
   25    24    63	5 ;     CG2R61      CG321       HGA2
   62    24    63	5 ;       HGA2      CG321       HGA2
   24    25    30	5 ;      CG321     CG2R61     CG2R61
   24    25    26	5 ;      CG321     CG2R61     CG2R61
   30    25    26	5 ;     CG2R61     CG2R61     CG2R61
   25    26    27	5 ;     CG2R61     CG2R61     CG2R61
   25    26    64	5 ;     CG2R61     CG2R61      HGR61
   27    26    64	5 ;     CG2R61     CG2R61      HGR61
   26    27    28	5 ;     CG2R61     CG2R61     CG2R61
   26    27    65	5 ;     CG2R61     CG2R61      HGR61
   28    27    65	5 ;     CG2R61     CG2R61      HGR61
   29    28    27	5 ;     CG2R61     CG2R61     CG2R61
   29    28    66	5 ;     CG2R61     CG2R61      HGR61
   27    28    66	5 ;     CG2R61     CG2R61      HGR61
   30    29    28	5 ;     CG2R61     CG2R61     CG2R61
   30    29    67	5 ;     CG2R61     CG2R61      HGR61
   28    29    67	5 ;     CG2R61     CG2R61      HGR61
   25    30    29	5 ;     CG2R61     CG2R61     CG2R61
   25    30    68	5 ;     CG2R61     CG2R61      HGR61
   29    30    68	5 ;     CG2R61     CG2R61      HGR61
   44    31    32	5 ;      OG311      CG311      CG324
   44    31     1	5 ;      OG311      CG311      CG311
   44    31    69	5 ;      OG311      CG311       HGA1
   32    31     1	5 ;      CG324      CG311      CG311
   32    31    69	5 ;      CG324      CG311       HGA1
    1    31    69	5 ;      CG311      CG311       HGA1
   33    32    31	5 ;      NG3P2      CG324      CG311
   33    32    70	5 ;      NG3P2      CG324       HGA2
   33    32    71	5 ;      NG3P2      CG324       HGA2
   31    32    70	5 ;      CG311      CG324       HGA2
   31    32    71	5 ;      CG311      CG324       HGA2
   70    32    71	5 ;       HGA2      CG324       HGA2
   35    33    36	5 ;       HGP2      NG3P2      CG324
   35    33    32	5 ;       HGP2      NG3P2      CG324
   35    33    34	5 ;       HGP2      NG3P2       HGP2
   36    33    32	5 ;      CG324      NG3P2      CG324
   36    33    34	5 ;      CG324      NG3P2       HGP2
   32    33    34	5 ;      CG324      NG3P2       HGP2
   33    36    37	5 ;      NG3P2      CG324      CG312
   33    36    72	5 ;      NG3P2      CG324       HGA2
   33    36    73	5 ;      NG3P2      CG324       HGA2
   37    36    72	5 ;      CG312      CG324       HGA2
   37    36    73	5 ;      CG312      CG324       HGA2
   72    36    73	5 ;       HGA2      CG324       HGA2
   36    37    39	5 ;      CG324      CG312       FGA2
   36    37    38	5 ;      CG324      CG312       FGA2
   36    37    40	5 ;      CG324      CG312      CG302
   39    37    38	5 ;       FGA2      CG312       FGA2
   39    37    40	5 ;       FGA2      CG312      CG302
   38    37    40	5 ;       FGA2      CG312      CG302
   37    40    43	5 ;      CG312      CG302       FGA3
   37    40    42	5 ;      CG312      CG302       FGA3
   37    40    41	5 ;      CG312      CG302       FGA3
   43    40    42	5 ;       FGA3      CG302       FGA3
   43    40    41	5 ;       FGA3      CG302       FGA3
   42    40    41	5 ;       FGA3      CG302       FGA3
   45    44    31	5 ;       HGP1      OG311      CG311

[ dihedrals ]
;	ai	  aj	ak	  al funct			  c0			c1			  c2			c3			  c4			c5
   24     1    31    44	 9 ;      CG321      CG311      CG311      OG311
   24     1    31    32	 9 ;      CG321      CG311      CG311      CG324
   24     1    31    69	 9 ;      CG321      CG311      CG311       HGA1
    2     1    31    44	 9 ;      NG2S1      CG311      CG311      OG311
    2     1    31    32	 9 ;      NG2S1      CG311      CG311      CG324
    2     1    31    69	 9 ;      NG2S1      CG311      CG311       HGA1
   46     1    31    44	 9 ;       HGA1      CG311      CG311      OG311
   46     1    31    32	 9 ;       HGA1      CG311      CG311      CG324
   46     1    31    69	 9 ;       HGA1      CG311      CG311       HGA1
   31     1    24    25	 9 ;      CG311      CG311      CG321     CG2R61
   31     1    24    62	 9 ;      CG311      CG311      CG321       HGA2
   31     1    24    63	 9 ;      CG311      CG311      CG321       HGA2
    2     1    24    25	 9 ;      NG2S1      CG311      CG321     CG2R61
    2     1    24    62	 9 ;      NG2S1      CG311      CG321       HGA2
    2     1    24    63	 9 ;      NG2S1      CG311      CG321       HGA2
   46     1    24    25	 9 ;       HGA1      CG311      CG321     CG2R61
   46     1    24    62	 9 ;       HGA1      CG311      CG321       HGA2
   46     1    24    63	 9 ;       HGA1      CG311      CG321       HGA2
   31     1     2     5	 9 ;      CG311      CG311      NG2S1       HGP1
   31     1     2     3	 9 ;      CG311      CG311      NG2S1      CG2O1
   24     1     2     5	 9 ;      CG321      CG311      NG2S1       HGP1
   24     1     2     3	 9 ;      CG321      CG311      NG2S1      CG2O1
   46     1     2     5	 9 ;       HGA1      CG311      NG2S1       HGP1
   46     1     2     3	 9 ;       HGA1      CG311      NG2S1      CG2O1
    1     2     3     4	 9 ;      CG311      NG2S1      CG2O1      OG2D1
    1     2     3     6	 9 ;      CG311      NG2S1      CG2O1     CG2R61
    5     2     3     4	 9 ;       HGP1      NG2S1      CG2O1      OG2D1
    5     2     3     6	 9 ;       HGP1      NG2S1      CG2O1     CG2R61
    2     3     6     7	 9 ;      NG2S1      CG2O1     CG2R61     CG2R61
    2     3     6    21	 9 ;      NG2S1      CG2O1     CG2R61     CG2R61
    4     3     6     7	 9 ;      OG2D1      CG2O1     CG2R61     CG2R61
    4     3     6    21	 9 ;      OG2D1      CG2O1     CG2R61     CG2R61
    3     6     7     8	 9 ;      CG2O1     CG2R61     CG2R61     CG2R61
    3     6     7    47	 9 ;      CG2O1     CG2R61     CG2R61      HGR61
   21     6     7     8	 9 ;     CG2R61     CG2R61     CG2R61     CG2R61
   21     6     7    47	 9 ;     CG2R61     CG2R61     CG2R61      HGR61
    3     6    21    20	 9 ;      CG2O1     CG2R61     CG2R61     CG2RC0
    3     6    21    56	 9 ;      CG2O1     CG2R61     CG2R61      HGR61
    7     6    21    20	 9 ;     CG2R61     CG2R61     CG2R61     CG2RC0
    7     6    21    56	 9 ;     CG2R61     CG2R61     CG2R61      HGR61
    6     7     8     9	 9 ;     CG2R61     CG2R61     CG2R61      NG301
    6     7     8    10	 9 ;     CG2R61     CG2R61     CG2R61     CG2RC0
   47     7     8     9	 9 ;      HGR61     CG2R61     CG2R61      NG301
   47     7     8    10	 9 ;      HGR61     CG2R61     CG2R61     CG2RC0
    7     8     9    12	 9 ;     CG2R61     CG2R61      NG301      CG331
    7     8     9    11	 9 ;     CG2R61     CG2R61      NG301      SG3O2
   10     8     9    12	 9 ;     CG2RC0     CG2R61      NG301      CG331
   10     8     9    11	 9 ;     CG2RC0     CG2R61      NG301      SG3O2
    7     8    10    20	 9 ;     CG2R61     CG2R61     CG2RC0     CG2RC0
    7     8    10    17	 9 ;     CG2R61     CG2R61     CG2RC0     CG2R51
    9     8    10    20	 9 ;      NG301     CG2R61     CG2RC0     CG2RC0
    9     8    10    17	 9 ;      NG301     CG2R61     CG2RC0     CG2R51
   11     9    12    48	 9 ;      SG3O2      NG301      CG331       HGA3
   11     9    12    49	 9 ;      SG3O2      NG301      CG331       HGA3
   11     9    12    50	 9 ;      SG3O2      NG301      CG331       HGA3
    8     9    12    48	 9 ;     CG2R61      NG301      CG331       HGA3
    8     9    12    49	 9 ;     CG2R61      NG301      CG331       HGA3
    8     9    12    50	 9 ;     CG2R61      NG301      CG331       HGA3
   12     9    11    13	 9 ;      CG331      NG301      SG3O2      OG2P1
   12     9    11    14	 9 ;      CG331      NG301      SG3O2      OG2P1
   12     9    11    15	 9 ;      CG331      NG301      SG3O2      CG321
    8     9    11    13	 9 ;     CG2R61      NG301      SG3O2      OG2P1
    8     9    11    14	 9 ;     CG2R61      NG301      SG3O2      OG2P1
    8     9    11    15	 9 ;     CG2R61      NG301      SG3O2      CG321
    8    10    20    21	 9 ;     CG2R61     CG2RC0     CG2RC0     CG2R61
    8    10    20    19	 9 ;     CG2R61     CG2RC0     CG2RC0     NG2R51
   17    10    20    21	 9 ;     CG2R51     CG2RC0     CG2RC0     CG2R61
   17    10    20    19	 9 ;     CG2R51     CG2RC0     CG2RC0     NG2R51
    8    10    17    16	 9 ;     CG2R61     CG2RC0     CG2R51      CG321
    8    10    17    18	 9 ;     CG2R61     CG2RC0     CG2R51     CG2R51
   20    10    17    16	 9 ;     CG2RC0     CG2RC0     CG2R51      CG321
   20    10    17    18	 9 ;     CG2RC0     CG2RC0     CG2R51     CG2R51
   13    11    15    16	 9 ;      OG2P1      SG3O2      CG321      CG321
   13    11    15    51	 9 ;      OG2P1      SG3O2      CG321       HGA2
   13    11    15    52	 9 ;      OG2P1      SG3O2      CG321       HGA2
    9    11    15    16	 9 ;      NG301      SG3O2      CG321      CG321
    9    11    15    51	 9 ;      NG301      SG3O2      CG321       HGA2
    9    11    15    52	 9 ;      NG301      SG3O2      CG321       HGA2
   14    11    15    16	 9 ;      OG2P1      SG3O2      CG321      CG321
   14    11    15    51	 9 ;      OG2P1      SG3O2      CG321       HGA2
   14    11    15    52	 9 ;      OG2P1      SG3O2      CG321       HGA2
   11    15    16    17	 9 ;      SG3O2      CG321      CG321     CG2R51
   11    15    16    53	 9 ;      SG3O2      CG321      CG321       HGA2
   11    15    16    54	 9 ;      SG3O2      CG321      CG321       HGA2
   51    15    16    17	 9 ;       HGA2      CG321      CG321     CG2R51
   51    15    16    53	 9 ;       HGA2      CG321      CG321       HGA2
   51    15    16    54	 9 ;       HGA2      CG321      CG321       HGA2
   52    15    16    17	 9 ;       HGA2      CG321      CG321     CG2R51
   52    15    16    53	 9 ;       HGA2      CG321      CG321       HGA2
   52    15    16    54	 9 ;       HGA2      CG321      CG321       HGA2
   15    16    17    10	 9 ;      CG321      CG321     CG2R51     CG2RC0
   15    16    17    18	 9 ;      CG321      CG321     CG2R51     CG2R51
   53    16    17    10	 9 ;       HGA2      CG321     CG2R51     CG2RC0
   53    16    17    18	 9 ;       HGA2      CG321     CG2R51     CG2R51
   54    16    17    10	 9 ;       HGA2      CG321     CG2R51     CG2RC0
   54    16    17    18	 9 ;       HGA2      CG321     CG2R51     CG2R51
   10    17    18    19	 9 ;     CG2RC0     CG2R51     CG2R51     NG2R51
   10    17    18    55	 9 ;     CG2RC0     CG2R51     CG2R51      HGR52
   16    17    18    19	 9 ;      CG321     CG2R51     CG2R51     NG2R51
   16    17    18    55	 9 ;      CG321     CG2R51     CG2R51      HGR52
   17    18    19    20	 9 ;     CG2R51     CG2R51     NG2R51     CG2RC0
   17    18    19    22	 9 ;     CG2R51     CG2R51     NG2R51      CG321
   55    18    19    20	 9 ;      HGR52     CG2R51     NG2R51     CG2RC0
   55    18    19    22	 9 ;      HGR52     CG2R51     NG2R51      CG321
   18    19    20    21	 9 ;     CG2R51     NG2R51     CG2RC0     CG2R61
   18    19    20    10	 9 ;     CG2R51     NG2R51     CG2RC0     CG2RC0
   22    19    20    21	 9 ;      CG321     NG2R51     CG2RC0     CG2R61
   22    19    20    10	 9 ;      CG321     NG2R51     CG2RC0     CG2RC0
   20    19    22    23	 9 ;     CG2RC0     NG2R51      CG321      CG331
   20    19    22    57	 9 ;     CG2RC0     NG2R51      CG321       HGA2
   20    19    22    58	 9 ;     CG2RC0     NG2R51      CG321       HGA2
   18    19    22    23	 9 ;     CG2R51     NG2R51      CG321      CG331
   18    19    22    57	 9 ;     CG2R51     NG2R51      CG321       HGA2
   18    19    22    58	 9 ;     CG2R51     NG2R51      CG321       HGA2
   10    20    21     6	 9 ;     CG2RC0     CG2RC0     CG2R61     CG2R61
   10    20    21    56	 9 ;     CG2RC0     CG2RC0     CG2R61      HGR61
   19    20    21     6	 9 ;     NG2R51     CG2RC0     CG2R61     CG2R61
   19    20    21    56	 9 ;     NG2R51     CG2RC0     CG2R61      HGR61
   19    22    23    59	 9 ;     NG2R51      CG321      CG331       HGA3
   19    22    23    60	 9 ;     NG2R51      CG321      CG331       HGA3
   19    22    23    61	 9 ;     NG2R51      CG321      CG331       HGA3
   57    22    23    59	 9 ;       HGA2      CG321      CG331       HGA3
   57    22    23    60	 9 ;       HGA2      CG321      CG331       HGA3
   57    22    23    61	 9 ;       HGA2      CG321      CG331       HGA3
   58    22    23    59	 9 ;       HGA2      CG321      CG331       HGA3
   58    22    23    60	 9 ;       HGA2      CG321      CG331       HGA3
   58    22    23    61	 9 ;       HGA2      CG321      CG331       HGA3
    1    24    25    30	 9 ;      CG311      CG321     CG2R61     CG2R61
    1    24    25    26	 9 ;      CG311      CG321     CG2R61     CG2R61
   62    24    25    30	 9 ;       HGA2      CG321     CG2R61     CG2R61
   62    24    25    26	 9 ;       HGA2      CG321     CG2R61     CG2R61
   63    24    25    30	 9 ;       HGA2      CG321     CG2R61     CG2R61
   63    24    25    26	 9 ;       HGA2      CG321     CG2R61     CG2R61
   24    25    30    29	 9 ;      CG321     CG2R61     CG2R61     CG2R61
   24    25    30    68	 9 ;      CG321     CG2R61     CG2R61      HGR61
   26    25    30    29	 9 ;     CG2R61     CG2R61     CG2R61     CG2R61
   26    25    30    68	 9 ;     CG2R61     CG2R61     CG2R61      HGR61
   24    25    26    27	 9 ;      CG321     CG2R61     CG2R61     CG2R61
   24    25    26    64	 9 ;      CG321     CG2R61     CG2R61      HGR61
   30    25    26    27	 9 ;     CG2R61     CG2R61     CG2R61     CG2R61
   30    25    26    64	 9 ;     CG2R61     CG2R61     CG2R61      HGR61
   25    26    27    28	 9 ;     CG2R61     CG2R61     CG2R61     CG2R61
   25    26    27    65	 9 ;     CG2R61     CG2R61     CG2R61      HGR61
   64    26    27    28	 9 ;      HGR61     CG2R61     CG2R61     CG2R61
   64    26    27    65	 9 ;      HGR61     CG2R61     CG2R61      HGR61
   26    27    28    29	 9 ;     CG2R61     CG2R61     CG2R61     CG2R61
   26    27    28    66	 9 ;     CG2R61     CG2R61     CG2R61      HGR61
   65    27    28    29	 9 ;      HGR61     CG2R61     CG2R61     CG2R61
   65    27    28    66	 9 ;      HGR61     CG2R61     CG2R61      HGR61
   27    28    29    30	 9 ;     CG2R61     CG2R61     CG2R61     CG2R61
   27    28    29    67	 9 ;     CG2R61     CG2R61     CG2R61      HGR61
   66    28    29    30	 9 ;      HGR61     CG2R61     CG2R61     CG2R61
   66    28    29    67	 9 ;      HGR61     CG2R61     CG2R61      HGR61
   28    29    30    25	 9 ;     CG2R61     CG2R61     CG2R61     CG2R61
   28    29    30    68	 9 ;     CG2R61     CG2R61     CG2R61      HGR61
   67    29    30    25	 9 ;      HGR61     CG2R61     CG2R61     CG2R61
   67    29    30    68	 9 ;      HGR61     CG2R61     CG2R61      HGR61
   32    31    44    45	 9 ;      CG324      CG311      OG311       HGP1
    1    31    44    45	 9 ;      CG311      CG311      OG311       HGP1
   69    31    44    45	 9 ;       HGA1      CG311      OG311       HGP1
   44    31    32    33	 9 ;      OG311      CG311      CG324      NG3P2
   44    31    32    70	 9 ;      OG311      CG311      CG324       HGA2
   44    31    32    71	 9 ;      OG311      CG311      CG324       HGA2
    1    31    32    33	 9 ;      CG311      CG311      CG324      NG3P2
    1    31    32    70	 9 ;      CG311      CG311      CG324       HGA2
    1    31    32    71	 9 ;      CG311      CG311      CG324       HGA2
   69    31    32    33	 9 ;       HGA1      CG311      CG324      NG3P2
   69    31    32    70	 9 ;       HGA1      CG311      CG324       HGA2
   69    31    32    71	 9 ;       HGA1      CG311      CG324       HGA2
   31    32    33    35	 9 ;      CG311      CG324      NG3P2       HGP2
   31    32    33    36	 9 ;      CG311      CG324      NG3P2      CG324
   31    32    33    34	 9 ;      CG311      CG324      NG3P2       HGP2
   70    32    33    35	 9 ;       HGA2      CG324      NG3P2       HGP2
   70    32    33    36	 9 ;       HGA2      CG324      NG3P2      CG324
   70    32    33    34	 9 ;       HGA2      CG324      NG3P2       HGP2
   71    32    33    35	 9 ;       HGA2      CG324      NG3P2       HGP2
   71    32    33    36	 9 ;       HGA2      CG324      NG3P2      CG324
   71    32    33    34	 9 ;       HGA2      CG324      NG3P2       HGP2
   35    33    36    37	 9 ;       HGP2      NG3P2      CG324      CG312
   35    33    36    72	 9 ;       HGP2      NG3P2      CG324       HGA2
   35    33    36    73	 9 ;       HGP2      NG3P2      CG324       HGA2
   32    33    36    37	 9 ;      CG324      NG3P2      CG324      CG312
   32    33    36    72	 9 ;      CG324      NG3P2      CG324       HGA2
   32    33    36    73	 9 ;      CG324      NG3P2      CG324       HGA2
   34    33    36    37	 9 ;       HGP2      NG3P2      CG324      CG312
   34    33    36    72	 9 ;       HGP2      NG3P2      CG324       HGA2
   34    33    36    73	 9 ;       HGP2      NG3P2      CG324       HGA2
   33    36    37    39	 9 ;      NG3P2      CG324      CG312       FGA2
   33    36    37    38	 9 ;      NG3P2      CG324      CG312       FGA2
   33    36    37    40	 9 ;      NG3P2      CG324      CG312      CG302
   72    36    37    39	 9 ;       HGA2      CG324      CG312       FGA2
   72    36    37    38	 9 ;       HGA2      CG324      CG312       FGA2
   72    36    37    40	 9 ;       HGA2      CG324      CG312      CG302
   73    36    37    39	 9 ;       HGA2      CG324      CG312       FGA2
   73    36    37    38	 9 ;       HGA2      CG324      CG312       FGA2
   73    36    37    40	 9 ;       HGA2      CG324      CG312      CG302
   36    37    40    43	 9 ;      CG324      CG312      CG302       FGA3
   36    37    40    42	 9 ;      CG324      CG312      CG302       FGA3
   36    37    40    41	 9 ;      CG324      CG312      CG302       FGA3
   39    37    40    43	 9 ;       FGA2      CG312      CG302       FGA3
   39    37    40    42	 9 ;       FGA2      CG312      CG302       FGA3
   39    37    40    41	 9 ;       FGA2      CG312      CG302       FGA3
   38    37    40    43	 9 ;       FGA2      CG312      CG302       FGA3
   38    37    40    42	 9 ;       FGA2      CG312      CG302       FGA3
   38    37    40    41	 9 ;       FGA2      CG312      CG302       FGA3

[ dihedrals ]
;	ai	  aj	ak	  al funct			  c0			c1			  c2			c3
    3     6     2     4	 2

