Giant Rising Ordinary Mutants for A Clerical Setup
   73
    1LIG     C1    1  -1.342   0.205  -1.847
    1LIG     N1    2  -1.417   0.307  -1.773
    1LIG     C2    3  -1.473   0.283  -1.648
    1LIG     O1    4  -1.475   0.170  -1.600
    1LIG     H1    5  -1.399   0.403  -1.798
    1LIG     C3    6  -1.528   0.400  -1.572
    1LIG     C4    7  -1.605   0.495  -1.641
    1LIG     C5    8  -1.661   0.604  -1.573
    1LIG     N2    9  -1.712   0.721  -1.640
    1LIG     C6   10  -1.655   0.607  -1.432
    1LIG      S   11  -1.648   0.871  -1.593
    1LIG     C7   12  -1.808   0.712  -1.749
    1LIG     O2   13  -1.677   0.967  -1.697
    1LIG     O3   14  -1.510   0.850  -1.551
    1LIG     C8   15  -1.743   0.918  -1.448
    1LIG     C9   16  -1.808   0.804  -1.371
    1LIG    C10   17  -1.712   0.695  -1.336
    1LIG    C11   18  -1.664   0.656  -1.212
    1LIG     N3   19  -1.579   0.551  -1.232
    1LIG    C12   20  -1.573   0.517  -1.365
    1LIG    C13   21  -1.502   0.417  -1.434
    1LIG    C14   22  -1.509   0.482  -1.124
    1LIG    C15   23  -1.602   0.446  -1.009
    1LIG    C16   24  -1.189   0.222  -1.824
    1LIG    C17   25  -1.123   0.104  -1.755
    1LIG    C18   26  -1.201   0.009  -1.686
    1LIG    C19   27  -1.139  -0.097  -1.618
    1LIG    C20   28  -1.001  -0.109  -1.619
    1LIG    C21   29  -0.923  -0.017  -1.689
    1LIG    C22   30  -0.984   0.088  -1.758
    1LIG    C23   31  -1.373   0.205  -2.000
    1LIG    C24   32  -1.420   0.343  -2.052
    1LIG     N4   33  -1.299   0.427  -2.084
    1LIG     H2   34  -1.222   0.391  -2.024
    1LIG     H3   35  -1.267   0.409  -2.181
    1LIG    C25   36  -1.319   0.577  -2.063
    1LIG    C26   37  -1.240   0.627  -1.942
    1LIG     F1   38  -1.154   0.528  -1.904
    1LIG     F2   39  -1.160   0.729  -1.986
    1LIG    C27   40  -1.332   0.671  -1.828
    1LIG     F3   41  -1.303   0.605  -1.713
    1LIG     F4   42  -1.321   0.803  -1.803
    1LIG     F5   43  -1.462   0.646  -1.857
    1LIG     O4   44  -1.263   0.165  -2.083
    1LIG     H4   45  -1.179   0.188  -2.038
    1LIG     H5   46  -1.373   0.110  -1.809
    1LIG     H6   47  -1.621   0.485  -1.742
    1LIG     H7   48  -1.832   0.811  -1.784
    1LIG     H8   49  -1.897   0.664  -1.715
    1LIG     H9   50  -1.766   0.656  -1.830
    1LIG    H10   51  -1.821   0.984  -1.481
    1LIG    H11   52  -1.673   0.963  -1.381
    1LIG    H12   53  -1.886   0.763  -1.431
    1LIG    H13   54  -1.844   0.846  -1.279
    1LIG    H14   55  -1.689   0.699  -1.122
    1LIG    H15   56  -1.432   0.359  -1.386
    1LIG    H16   57  -1.431   0.545  -1.087
    1LIG    H17   58  -1.469   0.391  -1.164
    1LIG    H18   59  -1.643   0.535  -0.968
    1LIG    H19   60  -1.547   0.394  -0.934
    1LIG    H20   61  -1.681   0.384  -1.046
    1LIG    H21   62  -1.173   0.309  -1.764
    1LIG    H22   63  -1.143   0.230  -1.920
    1LIG    H23   64  -1.304   0.017  -1.686
    1LIG    H24   65  -1.197  -0.166  -1.568
    1LIG    H25   66  -0.955  -0.186  -1.566
    1LIG    H26   67  -0.820  -0.027  -1.691
    1LIG    H27   68  -0.926   0.154  -1.812
    1LIG    H28   69  -1.452   0.133  -2.008
    1LIG    H29   70  -1.479   0.330  -2.140
    1LIG    H30   71  -1.479   0.391  -1.977
    1LIG    H31   72  -1.423   0.596  -2.048
    1LIG    H32   73  -1.284   0.628  -2.150
   0.00000   0.00000   0.00000
