; Created by cgenff_charmm2gmx.py

[ moleculetype ]
; Name			   nrexcl
LIG				 3

[ atoms ]
;	 nr		  type	resnr residue  atom   cgnr	   charge		mass  typeB    chargeB		massB
; residue	 1 LIG rtp LIG q	qsum
     1     CG2R61      1    LIG     C1      1      0.108     12.011   ;
     2     CG2R61      1    LIG     C2      2     -0.134     12.011   ;
     3     CG2R61      1    LIG     C3      3     -0.212     12.011   ;
     4     CG2R61      1    LIG     C4      4     -0.131     12.011   ;
     5     CG2R61      1    LIG     C5      5     -0.102     12.011   ;
     6     CG2R61      1    LIG     C6      6     -0.119     12.011   ;
     7     CG3C50      1    LIG     C7      7      1.440     12.011   ;
     8      NG3P2      1    LIG     N1      8     -0.588     14.007   ;
     9     CG3C53      1    LIG     C8      9      0.785     12.011   ;
    10       HGP2      1    LIG     HN     10      0.336      1.008   ;
    11     NG2R53      1    LIG     N2     11     -0.178     14.007   ;
    12      CG331      1    LIG     C9     12     -0.169     12.011   ;
    13     CG2R53      1    LIG    C10     13     -0.445     12.011   ;
    14      OG2D1      1    LIG     O1     14     -0.325     15.999   ;
    15      NG3P3      1    LIG     N3     15     -0.267     14.007   ;
    16       HGP2      1    LIG     H1     16      0.301      1.008   ;
    17       HGP2      1    LIG     H2     17      0.301      1.008   ;
    18      CG311      1    LIG    C11     18     -0.044     12.011   ;
    19      CG321      1    LIG    C12     19     -0.129     12.011   ;
    20      CG321      1    LIG    C13     20     -0.241     12.011   ;
    21      CG321      1    LIG    C14     21     -0.154     12.011   ;
    22      CG321      1    LIG    C15     22     -0.241     12.011   ;
    23      CG321      1    LIG    C16     23     -0.129     12.011   ;
    24      NG2S1      1    LIG     N4     24     -0.434     14.007   ;
    25      CG2O1      1    LIG    C17     25      0.478     12.011   ;
    26      OG2D1      1    LIG     O2     26     -0.470     15.999   ;
    27       HGP1      1    LIG     H3     27      0.322      1.008   ;
    28     CG2R61      1    LIG    C18     28     -0.132     12.011   ;
    29     CG2R61      1    LIG    C19     29     -0.302     12.011   ;
    30     CG2RC0      1    LIG    C20     30      0.095     12.011   ;
    31     OG3C51      1    LIG     O3     31     -0.274     15.999   ;
    32     CG2RC0      1    LIG    C21     32      0.093     12.011   ;
    33     CG3C52      1    LIG    C22     33      0.410     12.011   ;
    34     OG3C51      1    LIG     O4     34     -0.274     15.999   ;
    35     CG2R61      1    LIG    C23     35     -0.356     12.011   ;
    36     CG2R61      1    LIG    C24     36     -0.101     12.011   ;
    37      HGR61      1    LIG     HC     37      0.116      1.008   ;
    38      HGR61      1    LIG    HC1     38      0.116      1.008   ;
    39      HGR61      1    LIG    HC2     39      0.116      1.008   ;
    40      HGR61      1    LIG    HC3     40      0.116      1.008   ;
    41       HGP2      1    LIG    HN2     41      0.336      1.008   ;
    42       HGA1      1    LIG    HC4     42      0.073      1.008   ;
    43       HGP2      1    LIG    HN1     43      0.301      1.008   ;
    44       HGA1      1    LIG    HC5     44      0.090      1.008   ;
    45       HGA2      1    LIG    HC6     45      0.090      1.008   ;
    46       HGA2      1    LIG    HC7     46      0.090      1.008   ;
    47       HGA2      1    LIG    HC8     47      0.090      1.008   ;
    48       HGA2      1    LIG    HC9     48      0.090      1.008   ;
    49       HGA2      1    LIG   HC10     49      0.090      1.008   ;
    50       HGA2      1    LIG   HC11     50      0.090      1.008   ;
    51       HGA2      1    LIG   HC12     51      0.090      1.008   ;
    52       HGA2      1    LIG   HC13     52      0.090      1.008   ;
    53       HGA2      1    LIG   HC14     53      0.090      1.008   ;
    54       HGA2      1    LIG   HC15     54      0.090      1.008   ;
    55      HGR61      1    LIG   HC16     55      0.267      1.008   ;
    56       HGA2      1    LIG   HC17     56      0.090      1.008   ;
    57       HGA2      1    LIG   HC18     57      0.090      1.008   ;
    58      HGR61      1    LIG   HC19     58      0.267      1.008   ;
    59      HGR61      1    LIG   HC20     59      0.134      1.008   ;
    60       HGA3      1    LIG   HC21     60      0.090      1.008   ;
    61       HGA3      1    LIG   HC22     61      0.090      1.008   ;
    62       HGA3      1    LIG   HC23     62      0.090      1.008   ;

[ bonds ]
;	ai	  aj funct			  c0			c1			  c2			c3
    1     6	 1 ;      CG2R61     CG2R61
    1    24	 1 ;      CG2R61      NG2S1
    1     2	 1 ;      CG2R61     CG2R61
    2     3	 1 ;      CG2R61     CG2R61
    2    37	 1 ;      CG2R61      HGR61
    3     4	 1 ;      CG2R61     CG2R61
    3     7	 1 ;      CG2R61     CG3C50
    4     5	 1 ;      CG2R61     CG2R61
    4    38	 1 ;      CG2R61      HGR61
    5     6	 1 ;      CG2R61     CG2R61
    5    39	 1 ;      CG2R61      HGR61
    6    40	 1 ;      CG2R61      HGR61
    7     8	 1 ;      CG3C50      NG3P2
    7    13	 1 ;      CG3C50     CG2R53
    7    18	 1 ;      CG3C50      CG311
    8    10	 1 ;       NG3P2       HGP2
    8     9	 1 ;       NG3P2     CG3C53
    8    41	 1 ;       NG3P2       HGP2
    9    11	 1 ;      CG3C53     NG2R53
    9    15	 1 ;      CG3C53      NG3P3
    9    42	 1 ;      CG3C53       HGA1
   11    13	 1 ;      NG2R53     CG2R53
   11    12	 1 ;      NG2R53      CG331
   12    60	 1 ;       CG331       HGA3
   12    61	 1 ;       CG331       HGA3
   12    62	 1 ;       CG331       HGA3
   13    14	 1 ;      CG2R53      OG2D1
   15    17	 1 ;       NG3P3       HGP2
   15    16	 1 ;       NG3P3       HGP2
   15    43	 1 ;       NG3P3       HGP2
   18    23	 1 ;       CG311      CG321
   18    19	 1 ;       CG311      CG321
   18    44	 1 ;       CG311       HGA1
   19    20	 1 ;       CG321      CG321
   19    45	 1 ;       CG321       HGA2
   19    46	 1 ;       CG321       HGA2
   20    21	 1 ;       CG321      CG321
   20    47	 1 ;       CG321       HGA2
   20    48	 1 ;       CG321       HGA2
   21    22	 1 ;       CG321      CG321
   21    49	 1 ;       CG321       HGA2
   21    50	 1 ;       CG321       HGA2
   22    23	 1 ;       CG321      CG321
   22    51	 1 ;       CG321       HGA2
   22    52	 1 ;       CG321       HGA2
   23    53	 1 ;       CG321       HGA2
   23    54	 1 ;       CG321       HGA2
   24    25	 1 ;       NG2S1      CG2O1
   24    27	 1 ;       NG2S1       HGP1
   25    28	 1 ;       CG2O1     CG2R61
   25    26	 1 ;       CG2O1      OG2D1
   28    29	 1 ;      CG2R61     CG2R61
   28    36	 1 ;      CG2R61     CG2R61
   29    30	 1 ;      CG2R61     CG2RC0
   29    55	 1 ;      CG2R61      HGR61
   30    31	 1 ;      CG2RC0     OG3C51
   30    32	 1 ;      CG2RC0     CG2RC0
   31    33	 1 ;      OG3C51     CG3C52
   32    34	 1 ;      CG2RC0     OG3C51
   32    35	 1 ;      CG2RC0     CG2R61
   33    34	 1 ;      CG3C52     OG3C51
   33    56	 1 ;      CG3C52       HGA2
   33    57	 1 ;      CG3C52       HGA2
   35    36	 1 ;      CG2R61     CG2R61
   35    58	 1 ;      CG2R61      HGR61
   36    59	 1 ;      CG2R61      HGR61

[ pairs ]
;	ai	  aj funct			  c0			c1			  c2			c3
    1     4	 1
    1     7	 1
    1    39	 1
    1    28	 1
    1    26	 1
    2     5	 1
    2    40	 1
    2    25	 1
    2    27	 1
    2    38	 1
    2     8	 1
    2    13	 1
    2    18	 1
    3     6	 1
    3    24	 1
    3    39	 1
    3    10	 1
    3     9	 1
    3    41	 1
    3    14	 1
    3    11	 1
    3    23	 1
    3    19	 1
    3    44	 1
    4    37	 1
    4     8	 1
    4    13	 1
    4    18	 1
    4    40	 1
    5    24	 1
    5     7	 1
    6    25	 1
    6    27	 1
    6    37	 1
    6    38	 1
    7    37	 1
    7    38	 1
    7    15	 1
    7    42	 1
    7    12	 1
    7    22	 1
    7    53	 1
    7    54	 1
    7    20	 1
    7    45	 1
    7    46	 1
    8    14	 1
    8    23	 1
    8    19	 1
    8    44	 1
    8    12	 1
    8    17	 1
    8    16	 1
    8    43	 1
    9    18	 1
    9    14	 1
    9    60	 1
    9    61	 1
    9    62	 1
   10    13	 1
   10    18	 1
   10    11	 1
   10    15	 1
   10    42	 1
   11    18	 1
   11    41	 1
   11    17	 1
   11    16	 1
   11    43	 1
   12    15	 1
   12    42	 1
   12    14	 1
   13    41	 1
   13    23	 1
   13    19	 1
   13    44	 1
   13    15	 1
   13    42	 1
   13    60	 1
   13    61	 1
   13    62	 1
   14    18	 1
   15    41	 1
   16    42	 1
   17    42	 1
   18    41	 1
   18    21	 1
   18    47	 1
   18    48	 1
   18    51	 1
   18    52	 1
   19    22	 1
   19    53	 1
   19    54	 1
   19    49	 1
   19    50	 1
   20    23	 1
   20    44	 1
   20    51	 1
   20    52	 1
   21    45	 1
   21    46	 1
   21    53	 1
   21    54	 1
   22    44	 1
   22    47	 1
   22    48	 1
   23    45	 1
   23    46	 1
   23    49	 1
   23    50	 1
   24    40	 1
   24    37	 1
   24    29	 1
   24    36	 1
   25    30	 1
   25    55	 1
   25    35	 1
   25    59	 1
   26    27	 1
   26    29	 1
   26    36	 1
   27    28	 1
   28    31	 1
   28    32	 1
   28    58	 1
   29    35	 1
   29    59	 1
   29    33	 1
   29    34	 1
   30    36	 1
   30    56	 1
   30    57	 1
   30    58	 1
   31    55	 1
   31    35	 1
   32    55	 1
   32    56	 1
   32    57	 1
   32    59	 1
   33    35	 1
   34    36	 1
   34    58	 1
   36    55	 1
   38    39	 1
   39    40	 1
   41    42	 1
   42    43	 1
   44    53	 1
   44    54	 1
   44    45	 1
   44    46	 1
   45    47	 1
   45    48	 1
   46    47	 1
   46    48	 1
   47    49	 1
   47    50	 1
   48    49	 1
   48    50	 1
   49    51	 1
   49    52	 1
   50    51	 1
   50    52	 1
   51    53	 1
   51    54	 1
   52    53	 1
   52    54	 1
   58    59	 1

[ angles ]
;	ai	  aj	ak funct			c0			  c1			c2			  c3
    6     1    24	5 ;     CG2R61     CG2R61      NG2S1
    6     1     2	5 ;     CG2R61     CG2R61     CG2R61
   24     1     2	5 ;      NG2S1     CG2R61     CG2R61
    1     2     3	5 ;     CG2R61     CG2R61     CG2R61
    1     2    37	5 ;     CG2R61     CG2R61      HGR61
    3     2    37	5 ;     CG2R61     CG2R61      HGR61
    4     3     2	5 ;     CG2R61     CG2R61     CG2R61
    4     3     7	5 ;     CG2R61     CG2R61     CG3C50
    2     3     7	5 ;     CG2R61     CG2R61     CG3C50
    5     4     3	5 ;     CG2R61     CG2R61     CG2R61
    5     4    38	5 ;     CG2R61     CG2R61      HGR61
    3     4    38	5 ;     CG2R61     CG2R61      HGR61
    6     5     4	5 ;     CG2R61     CG2R61     CG2R61
    6     5    39	5 ;     CG2R61     CG2R61      HGR61
    4     5    39	5 ;     CG2R61     CG2R61      HGR61
    5     6     1	5 ;     CG2R61     CG2R61     CG2R61
    5     6    40	5 ;     CG2R61     CG2R61      HGR61
    1     6    40	5 ;     CG2R61     CG2R61      HGR61
    3     7     8	5 ;     CG2R61     CG3C50      NG3P2
    3     7    13	5 ;     CG2R61     CG3C50     CG2R53
    3     7    18	5 ;     CG2R61     CG3C50      CG311
    8     7    13	5 ;      NG3P2     CG3C50     CG2R53
    8     7    18	5 ;      NG3P2     CG3C50      CG311
   13     7    18	5 ;     CG2R53     CG3C50      CG311
   10     8     7	5 ;       HGP2      NG3P2     CG3C50
   10     8     9	5 ;       HGP2      NG3P2     CG3C53
   10     8    41	5 ;       HGP2      NG3P2       HGP2
    7     8     9	5 ;     CG3C50      NG3P2     CG3C53
    7     8    41	5 ;     CG3C50      NG3P2       HGP2
    9     8    41	5 ;     CG3C53      NG3P2       HGP2
    8     9    11	5 ;      NG3P2     CG3C53     NG2R53
    8     9    15	5 ;      NG3P2     CG3C53      NG3P3
    8     9    42	5 ;      NG3P2     CG3C53       HGA1
   11     9    15	5 ;     NG2R53     CG3C53      NG3P3
   11     9    42	5 ;     NG2R53     CG3C53       HGA1
   15     9    42	5 ;      NG3P3     CG3C53       HGA1
   13    11     9	5 ;     CG2R53     NG2R53     CG3C53
   13    11    12	5 ;     CG2R53     NG2R53      CG331
    9    11    12	5 ;     CG3C53     NG2R53      CG331
   11    12    60	5 ;     NG2R53      CG331       HGA3
   11    12    61	5 ;     NG2R53      CG331       HGA3
   11    12    62	5 ;     NG2R53      CG331       HGA3
   60    12    61	5 ;       HGA3      CG331       HGA3
   60    12    62	5 ;       HGA3      CG331       HGA3
   61    12    62	5 ;       HGA3      CG331       HGA3
    7    13    14	5 ;     CG3C50     CG2R53      OG2D1
    7    13    11	5 ;     CG3C50     CG2R53     NG2R53
   14    13    11	5 ;      OG2D1     CG2R53     NG2R53
    9    15    17	5 ;     CG3C53      NG3P3       HGP2
    9    15    16	5 ;     CG3C53      NG3P3       HGP2
    9    15    43	5 ;     CG3C53      NG3P3       HGP2
   17    15    16	5 ;       HGP2      NG3P3       HGP2
   17    15    43	5 ;       HGP2      NG3P3       HGP2
   16    15    43	5 ;       HGP2      NG3P3       HGP2
    7    18    23	5 ;     CG3C50      CG311      CG321
    7    18    19	5 ;     CG3C50      CG311      CG321
    7    18    44	5 ;     CG3C50      CG311       HGA1
   23    18    19	5 ;      CG321      CG311      CG321
   23    18    44	5 ;      CG321      CG311       HGA1
   19    18    44	5 ;      CG321      CG311       HGA1
   18    19    20	5 ;      CG311      CG321      CG321
   18    19    45	5 ;      CG311      CG321       HGA2
   18    19    46	5 ;      CG311      CG321       HGA2
   20    19    45	5 ;      CG321      CG321       HGA2
   20    19    46	5 ;      CG321      CG321       HGA2
   45    19    46	5 ;       HGA2      CG321       HGA2
   19    20    21	5 ;      CG321      CG321      CG321
   19    20    47	5 ;      CG321      CG321       HGA2
   19    20    48	5 ;      CG321      CG321       HGA2
   21    20    47	5 ;      CG321      CG321       HGA2
   21    20    48	5 ;      CG321      CG321       HGA2
   47    20    48	5 ;       HGA2      CG321       HGA2
   22    21    20	5 ;      CG321      CG321      CG321
   22    21    49	5 ;      CG321      CG321       HGA2
   22    21    50	5 ;      CG321      CG321       HGA2
   20    21    49	5 ;      CG321      CG321       HGA2
   20    21    50	5 ;      CG321      CG321       HGA2
   49    21    50	5 ;       HGA2      CG321       HGA2
   23    22    21	5 ;      CG321      CG321      CG321
   23    22    51	5 ;      CG321      CG321       HGA2
   23    22    52	5 ;      CG321      CG321       HGA2
   21    22    51	5 ;      CG321      CG321       HGA2
   21    22    52	5 ;      CG321      CG321       HGA2
   51    22    52	5 ;       HGA2      CG321       HGA2
   18    23    22	5 ;      CG311      CG321      CG321
   18    23    53	5 ;      CG311      CG321       HGA2
   18    23    54	5 ;      CG311      CG321       HGA2
   22    23    53	5 ;      CG321      CG321       HGA2
   22    23    54	5 ;      CG321      CG321       HGA2
   53    23    54	5 ;       HGA2      CG321       HGA2
   25    24    27	5 ;      CG2O1      NG2S1       HGP1
   25    24     1	5 ;      CG2O1      NG2S1     CG2R61
   27    24     1	5 ;       HGP1      NG2S1     CG2R61
   28    25    26	5 ;     CG2R61      CG2O1      OG2D1
   28    25    24	5 ;     CG2R61      CG2O1      NG2S1
   26    25    24	5 ;      OG2D1      CG2O1      NG2S1
   29    28    36	5 ;     CG2R61     CG2R61     CG2R61
   29    28    25	5 ;     CG2R61     CG2R61      CG2O1
   36    28    25	5 ;     CG2R61     CG2R61      CG2O1
   30    29    28	5 ;     CG2RC0     CG2R61     CG2R61
   30    29    55	5 ;     CG2RC0     CG2R61      HGR61
   28    29    55	5 ;     CG2R61     CG2R61      HGR61
   31    30    32	5 ;     OG3C51     CG2RC0     CG2RC0
   31    30    29	5 ;     OG3C51     CG2RC0     CG2R61
   32    30    29	5 ;     CG2RC0     CG2RC0     CG2R61
   33    31    30	5 ;     CG3C52     OG3C51     CG2RC0
   34    32    30	5 ;     OG3C51     CG2RC0     CG2RC0
   34    32    35	5 ;     OG3C51     CG2RC0     CG2R61
   30    32    35	5 ;     CG2RC0     CG2RC0     CG2R61
   31    33    34	5 ;     OG3C51     CG3C52     OG3C51
   31    33    56	5 ;     OG3C51     CG3C52       HGA2
   31    33    57	5 ;     OG3C51     CG3C52       HGA2
   34    33    56	5 ;     OG3C51     CG3C52       HGA2
   34    33    57	5 ;     OG3C51     CG3C52       HGA2
   56    33    57	5 ;       HGA2     CG3C52       HGA2
   33    34    32	5 ;     CG3C52     OG3C51     CG2RC0
   32    35    36	5 ;     CG2RC0     CG2R61     CG2R61
   32    35    58	5 ;     CG2RC0     CG2R61      HGR61
   36    35    58	5 ;     CG2R61     CG2R61      HGR61
   35    36    28	5 ;     CG2R61     CG2R61     CG2R61
   35    36    59	5 ;     CG2R61     CG2R61      HGR61
   28    36    59	5 ;     CG2R61     CG2R61      HGR61

[ dihedrals ]
;	ai	  aj	ak	  al funct			  c0			c1			  c2			c3			  c4			c5
   24     1     6     5	 9 ;      NG2S1     CG2R61     CG2R61     CG2R61
   24     1     6    40	 9 ;      NG2S1     CG2R61     CG2R61      HGR61
    2     1     6     5	 9 ;     CG2R61     CG2R61     CG2R61     CG2R61
    2     1     6    40	 9 ;     CG2R61     CG2R61     CG2R61      HGR61
    6     1    24    25	 9 ;     CG2R61     CG2R61      NG2S1      CG2O1
    6     1    24    27	 9 ;     CG2R61     CG2R61      NG2S1       HGP1
    2     1    24    25	 9 ;     CG2R61     CG2R61      NG2S1      CG2O1
    2     1    24    27	 9 ;     CG2R61     CG2R61      NG2S1       HGP1
    6     1     2     3	 9 ;     CG2R61     CG2R61     CG2R61     CG2R61
    6     1     2    37	 9 ;     CG2R61     CG2R61     CG2R61      HGR61
   24     1     2     3	 9 ;      NG2S1     CG2R61     CG2R61     CG2R61
   24     1     2    37	 9 ;      NG2S1     CG2R61     CG2R61      HGR61
    1     2     3     4	 9 ;     CG2R61     CG2R61     CG2R61     CG2R61
    1     2     3     7	 9 ;     CG2R61     CG2R61     CG2R61     CG3C50
   37     2     3     4	 9 ;      HGR61     CG2R61     CG2R61     CG2R61
   37     2     3     7	 9 ;      HGR61     CG2R61     CG2R61     CG3C50
    2     3     4     5	 9 ;     CG2R61     CG2R61     CG2R61     CG2R61
    2     3     4    38	 9 ;     CG2R61     CG2R61     CG2R61      HGR61
    7     3     4     5	 9 ;     CG3C50     CG2R61     CG2R61     CG2R61
    7     3     4    38	 9 ;     CG3C50     CG2R61     CG2R61      HGR61
    4     3     7     8	 9 ;     CG2R61     CG2R61     CG3C50      NG3P2
    4     3     7    13	 9 ;     CG2R61     CG2R61     CG3C50     CG2R53
    4     3     7    18	 9 ;     CG2R61     CG2R61     CG3C50      CG311
    2     3     7     8	 9 ;     CG2R61     CG2R61     CG3C50      NG3P2
    2     3     7    13	 9 ;     CG2R61     CG2R61     CG3C50     CG2R53
    2     3     7    18	 9 ;     CG2R61     CG2R61     CG3C50      CG311
    3     4     5     6	 9 ;     CG2R61     CG2R61     CG2R61     CG2R61
    3     4     5    39	 9 ;     CG2R61     CG2R61     CG2R61      HGR61
   38     4     5     6	 9 ;      HGR61     CG2R61     CG2R61     CG2R61
   38     4     5    39	 9 ;      HGR61     CG2R61     CG2R61      HGR61
    4     5     6     1	 9 ;     CG2R61     CG2R61     CG2R61     CG2R61
    4     5     6    40	 9 ;     CG2R61     CG2R61     CG2R61      HGR61
   39     5     6     1	 9 ;      HGR61     CG2R61     CG2R61     CG2R61
   39     5     6    40	 9 ;      HGR61     CG2R61     CG2R61      HGR61
    3     7     8    10	 9 ;     CG2R61     CG3C50      NG3P2       HGP2
    3     7     8     9	 9 ;     CG2R61     CG3C50      NG3P2     CG3C53
    3     7     8    41	 9 ;     CG2R61     CG3C50      NG3P2       HGP2
   13     7     8    10	 9 ;     CG2R53     CG3C50      NG3P2       HGP2
   13     7     8     9	 9 ;     CG2R53     CG3C50      NG3P2     CG3C53
   13     7     8    41	 9 ;     CG2R53     CG3C50      NG3P2       HGP2
   18     7     8    10	 9 ;      CG311     CG3C50      NG3P2       HGP2
   18     7     8     9	 9 ;      CG311     CG3C50      NG3P2     CG3C53
   18     7     8    41	 9 ;      CG311     CG3C50      NG3P2       HGP2
    3     7    13    14	 9 ;     CG2R61     CG3C50     CG2R53      OG2D1
    3     7    13    11	 9 ;     CG2R61     CG3C50     CG2R53     NG2R53
    8     7    13    14	 9 ;      NG3P2     CG3C50     CG2R53      OG2D1
    8     7    13    11	 9 ;      NG3P2     CG3C50     CG2R53     NG2R53
   18     7    13    14	 9 ;      CG311     CG3C50     CG2R53      OG2D1
   18     7    13    11	 9 ;      CG311     CG3C50     CG2R53     NG2R53
    3     7    18    23	 9 ;     CG2R61     CG3C50      CG311      CG321
    3     7    18    19	 9 ;     CG2R61     CG3C50      CG311      CG321
    3     7    18    44	 9 ;     CG2R61     CG3C50      CG311       HGA1
    8     7    18    23	 9 ;      NG3P2     CG3C50      CG311      CG321
    8     7    18    19	 9 ;      NG3P2     CG3C50      CG311      CG321
    8     7    18    44	 9 ;      NG3P2     CG3C50      CG311       HGA1
   13     7    18    23	 9 ;     CG2R53     CG3C50      CG311      CG321
   13     7    18    19	 9 ;     CG2R53     CG3C50      CG311      CG321
   13     7    18    44	 9 ;     CG2R53     CG3C50      CG311       HGA1
   10     8     9    11	 9 ;       HGP2      NG3P2     CG3C53     NG2R53
   10     8     9    15	 9 ;       HGP2      NG3P2     CG3C53      NG3P3
   10     8     9    42	 9 ;       HGP2      NG3P2     CG3C53       HGA1
    7     8     9    11	 9 ;     CG3C50      NG3P2     CG3C53     NG2R53
    7     8     9    15	 9 ;     CG3C50      NG3P2     CG3C53      NG3P3
    7     8     9    42	 9 ;     CG3C50      NG3P2     CG3C53       HGA1
   41     8     9    11	 9 ;       HGP2      NG3P2     CG3C53     NG2R53
   41     8     9    15	 9 ;       HGP2      NG3P2     CG3C53      NG3P3
   41     8     9    42	 9 ;       HGP2      NG3P2     CG3C53       HGA1
    8     9    11    13	 9 ;      NG3P2     CG3C53     NG2R53     CG2R53
    8     9    11    12	 9 ;      NG3P2     CG3C53     NG2R53      CG331
   15     9    11    13	 9 ;      NG3P3     CG3C53     NG2R53     CG2R53
   15     9    11    12	 9 ;      NG3P3     CG3C53     NG2R53      CG331
   42     9    11    13	 9 ;       HGA1     CG3C53     NG2R53     CG2R53
   42     9    11    12	 9 ;       HGA1     CG3C53     NG2R53      CG331
    8     9    15    17	 9 ;      NG3P2     CG3C53      NG3P3       HGP2
    8     9    15    16	 9 ;      NG3P2     CG3C53      NG3P3       HGP2
    8     9    15    43	 9 ;      NG3P2     CG3C53      NG3P3       HGP2
   11     9    15    17	 9 ;     NG2R53     CG3C53      NG3P3       HGP2
   11     9    15    16	 9 ;     NG2R53     CG3C53      NG3P3       HGP2
   11     9    15    43	 9 ;     NG2R53     CG3C53      NG3P3       HGP2
   42     9    15    17	 9 ;       HGA1     CG3C53      NG3P3       HGP2
   42     9    15    16	 9 ;       HGA1     CG3C53      NG3P3       HGP2
   42     9    15    43	 9 ;       HGA1     CG3C53      NG3P3       HGP2
    9    11    13     7	 9 ;     CG3C53     NG2R53     CG2R53     CG3C50
    9    11    13    14	 9 ;     CG3C53     NG2R53     CG2R53      OG2D1
   12    11    13     7	 9 ;      CG331     NG2R53     CG2R53     CG3C50
   12    11    13    14	 9 ;      CG331     NG2R53     CG2R53      OG2D1
   13    11    12    60	 9 ;     CG2R53     NG2R53      CG331       HGA3
   13    11    12    61	 9 ;     CG2R53     NG2R53      CG331       HGA3
   13    11    12    62	 9 ;     CG2R53     NG2R53      CG331       HGA3
    9    11    12    60	 9 ;     CG3C53     NG2R53      CG331       HGA3
    9    11    12    61	 9 ;     CG3C53     NG2R53      CG331       HGA3
    9    11    12    62	 9 ;     CG3C53     NG2R53      CG331       HGA3
    7    18    23    22	 9 ;     CG3C50      CG311      CG321      CG321
    7    18    23    53	 9 ;     CG3C50      CG311      CG321       HGA2
    7    18    23    54	 9 ;     CG3C50      CG311      CG321       HGA2
   19    18    23    22	 9 ;      CG321      CG311      CG321      CG321
   19    18    23    53	 9 ;      CG321      CG311      CG321       HGA2
   19    18    23    54	 9 ;      CG321      CG311      CG321       HGA2
   44    18    23    22	 9 ;       HGA1      CG311      CG321      CG321
   44    18    23    53	 9 ;       HGA1      CG311      CG321       HGA2
   44    18    23    54	 9 ;       HGA1      CG311      CG321       HGA2
    7    18    19    20	 9 ;     CG3C50      CG311      CG321      CG321
    7    18    19    45	 9 ;     CG3C50      CG311      CG321       HGA2
    7    18    19    46	 9 ;     CG3C50      CG311      CG321       HGA2
   23    18    19    20	 9 ;      CG321      CG311      CG321      CG321
   23    18    19    45	 9 ;      CG321      CG311      CG321       HGA2
   23    18    19    46	 9 ;      CG321      CG311      CG321       HGA2
   44    18    19    20	 9 ;       HGA1      CG311      CG321      CG321
   44    18    19    45	 9 ;       HGA1      CG311      CG321       HGA2
   44    18    19    46	 9 ;       HGA1      CG311      CG321       HGA2
   18    19    20    21	 9 ;      CG311      CG321      CG321      CG321
   18    19    20    47	 9 ;      CG311      CG321      CG321       HGA2
   18    19    20    48	 9 ;      CG311      CG321      CG321       HGA2
   45    19    20    21	 9 ;       HGA2      CG321      CG321      CG321
   45    19    20    47	 9 ;       HGA2      CG321      CG321       HGA2
   45    19    20    48	 9 ;       HGA2      CG321      CG321       HGA2
   46    19    20    21	 9 ;       HGA2      CG321      CG321      CG321
   46    19    20    47	 9 ;       HGA2      CG321      CG321       HGA2
   46    19    20    48	 9 ;       HGA2      CG321      CG321       HGA2
   19    20    21    22	 9 ;      CG321      CG321      CG321      CG321
   19    20    21    49	 9 ;      CG321      CG321      CG321       HGA2
   19    20    21    50	 9 ;      CG321      CG321      CG321       HGA2
   47    20    21    22	 9 ;       HGA2      CG321      CG321      CG321
   47    20    21    49	 9 ;       HGA2      CG321      CG321       HGA2
   47    20    21    50	 9 ;       HGA2      CG321      CG321       HGA2
   48    20    21    22	 9 ;       HGA2      CG321      CG321      CG321
   48    20    21    49	 9 ;       HGA2      CG321      CG321       HGA2
   48    20    21    50	 9 ;       HGA2      CG321      CG321       HGA2
   20    21    22    23	 9 ;      CG321      CG321      CG321      CG321
   20    21    22    51	 9 ;      CG321      CG321      CG321       HGA2
   20    21    22    52	 9 ;      CG321      CG321      CG321       HGA2
   49    21    22    23	 9 ;       HGA2      CG321      CG321      CG321
   49    21    22    51	 9 ;       HGA2      CG321      CG321       HGA2
   49    21    22    52	 9 ;       HGA2      CG321      CG321       HGA2
   50    21    22    23	 9 ;       HGA2      CG321      CG321      CG321
   50    21    22    51	 9 ;       HGA2      CG321      CG321       HGA2
   50    21    22    52	 9 ;       HGA2      CG321      CG321       HGA2
   21    22    23    18	 9 ;      CG321      CG321      CG321      CG311
   21    22    23    53	 9 ;      CG321      CG321      CG321       HGA2
   21    22    23    54	 9 ;      CG321      CG321      CG321       HGA2
   51    22    23    18	 9 ;       HGA2      CG321      CG321      CG311
   51    22    23    53	 9 ;       HGA2      CG321      CG321       HGA2
   51    22    23    54	 9 ;       HGA2      CG321      CG321       HGA2
   52    22    23    18	 9 ;       HGA2      CG321      CG321      CG311
   52    22    23    53	 9 ;       HGA2      CG321      CG321       HGA2
   52    22    23    54	 9 ;       HGA2      CG321      CG321       HGA2
   27    24    25    28	 9 ;       HGP1      NG2S1      CG2O1     CG2R61
   27    24    25    26	 9 ;       HGP1      NG2S1      CG2O1      OG2D1
    1    24    25    28	 9 ;     CG2R61      NG2S1      CG2O1     CG2R61
    1    24    25    26	 9 ;     CG2R61      NG2S1      CG2O1      OG2D1
   26    25    28    29	 9 ;      OG2D1      CG2O1     CG2R61     CG2R61
   26    25    28    36	 9 ;      OG2D1      CG2O1     CG2R61     CG2R61
   24    25    28    29	 9 ;      NG2S1      CG2O1     CG2R61     CG2R61
   24    25    28    36	 9 ;      NG2S1      CG2O1     CG2R61     CG2R61
   36    28    29    30	 9 ;     CG2R61     CG2R61     CG2R61     CG2RC0
   36    28    29    55	 9 ;     CG2R61     CG2R61     CG2R61      HGR61
   25    28    29    30	 9 ;      CG2O1     CG2R61     CG2R61     CG2RC0
   25    28    29    55	 9 ;      CG2O1     CG2R61     CG2R61      HGR61
   29    28    36    35	 9 ;     CG2R61     CG2R61     CG2R61     CG2R61
   29    28    36    59	 9 ;     CG2R61     CG2R61     CG2R61      HGR61
   25    28    36    35	 9 ;      CG2O1     CG2R61     CG2R61     CG2R61
   25    28    36    59	 9 ;      CG2O1     CG2R61     CG2R61      HGR61
   28    29    30    31	 9 ;     CG2R61     CG2R61     CG2RC0     OG3C51
   28    29    30    32	 9 ;     CG2R61     CG2R61     CG2RC0     CG2RC0
   55    29    30    31	 9 ;      HGR61     CG2R61     CG2RC0     OG3C51
   55    29    30    32	 9 ;      HGR61     CG2R61     CG2RC0     CG2RC0
   32    30    31    33	 9 ;     CG2RC0     CG2RC0     OG3C51     CG3C52
   29    30    31    33	 9 ;     CG2R61     CG2RC0     OG3C51     CG3C52
   31    30    32    34	 9 ;     OG3C51     CG2RC0     CG2RC0     OG3C51
   31    30    32    35	 9 ;     OG3C51     CG2RC0     CG2RC0     CG2R61
   29    30    32    34	 9 ;     CG2R61     CG2RC0     CG2RC0     OG3C51
   29    30    32    35	 9 ;     CG2R61     CG2RC0     CG2RC0     CG2R61
   30    31    33    34	 9 ;     CG2RC0     OG3C51     CG3C52     OG3C51
   30    31    33    56	 9 ;     CG2RC0     OG3C51     CG3C52       HGA2
   30    31    33    57	 9 ;     CG2RC0     OG3C51     CG3C52       HGA2
   30    32    34    33	 9 ;     CG2RC0     CG2RC0     OG3C51     CG3C52
   35    32    34    33	 9 ;     CG2R61     CG2RC0     OG3C51     CG3C52
   34    32    35    36	 9 ;     OG3C51     CG2RC0     CG2R61     CG2R61
   34    32    35    58	 9 ;     OG3C51     CG2RC0     CG2R61      HGR61
   30    32    35    36	 9 ;     CG2RC0     CG2RC0     CG2R61     CG2R61
   30    32    35    58	 9 ;     CG2RC0     CG2RC0     CG2R61      HGR61
   31    33    34    32	 9 ;     OG3C51     CG3C52     OG3C51     CG2RC0
   56    33    34    32	 9 ;       HGA2     CG3C52     OG3C51     CG2RC0
   57    33    34    32	 9 ;       HGA2     CG3C52     OG3C51     CG2RC0
   32    35    36    28	 9 ;     CG2RC0     CG2R61     CG2R61     CG2R61
   32    35    36    59	 9 ;     CG2RC0     CG2R61     CG2R61      HGR61
   58    35    36    28	 9 ;      HGR61     CG2R61     CG2R61     CG2R61
   58    35    36    59	 9 ;      HGR61     CG2R61     CG2R61      HGR61

[ dihedrals ]
;	ai	  aj	ak	  al funct			  c0			c1			  c2			c3
   13     7    11    14	 2
   25    28    24    26	 2

