GROtesk MACabre and Sinister
   62
    1LIG     C1    1  -1.757   0.325  -1.582
    1LIG     C2    2  -1.855   0.389  -1.506
    1LIG     C3    3  -1.979   0.429  -1.561
    1LIG     C4    4  -1.999   0.406  -1.697
    1LIG     C5    5  -1.898   0.351  -1.776
    1LIG     C6    6  -1.776   0.312  -1.719
    1LIG     C7    7  -2.089   0.482  -1.467
    1LIG     N1    8  -2.039   0.600  -1.387
    1LIG     C8    9  -2.129   0.692  -1.396
    1LIG     HN   10  -1.951   0.605  -1.335
    1LIG     N2   11  -2.233   0.665  -1.476
    1LIG     C9   12  -2.353   0.744  -1.493
    1LIG    C10   13  -2.211   0.545  -1.538
    1LIG     O1   14  -2.280   0.498  -1.627
    1LIG     N3   15  -2.117   0.810  -1.332
    1LIG     H1   16  -2.206   0.846  -1.301
    1LIG     H2   17  -2.045   0.816  -1.260
    1LIG    C11   18  -2.142   0.376  -1.364
    1LIG    C12   19  -2.294   0.350  -1.375
    1LIG    C13   20  -2.339   0.241  -1.278
    1LIG    C14   21  -2.303   0.277  -1.134
    1LIG    C15   22  -2.153   0.301  -1.120
    1LIG    C16   23  -2.104   0.407  -1.218
    1LIG     N4   24  -1.641   0.266  -1.525
    1LIG    C17   25  -1.527   0.337  -1.488
    1LIG     O2   26  -1.511   0.458  -1.503
    1LIG     H3   27  -1.652   0.172  -1.491
    1LIG    C18   28  -1.417   0.263  -1.418
    1LIG    C19   29  -1.387   0.127  -1.437
    1LIG    C20   30  -1.289   0.072  -1.358
    1LIG     O3   31  -1.250  -0.059  -1.360
    1LIG    C21   32  -1.218   0.145  -1.264
    1LIG    C22   33  -1.156  -0.061  -1.250
    1LIG     O4   34  -1.128   0.069  -1.196
    1LIG    C23   35  -1.241   0.279  -1.246
    1LIG    C24   36  -1.342   0.338  -1.322
    1LIG     HC   37  -1.836   0.409  -1.402
    1LIG    HC1   38  -2.094   0.431  -1.742
    1LIG    HC2   39  -1.913   0.339  -1.883
    1LIG    HC3   40  -1.698   0.272  -1.782
    1LIG    HN2   41  -2.084   0.563  -1.305
    1LIG    HC4   42  -2.182   0.650  -1.311
    1LIG    HN1   43  -2.087   0.875  -1.403
    1LIG    HC5   44  -2.093   0.282  -1.389
    1LIG    HC6   45  -2.347   0.443  -1.351
    1LIG    HC7   46  -2.318   0.320  -1.476
    1LIG    HC8   47  -2.448   0.230  -1.285
    1LIG    HC9   48  -2.291   0.147  -1.305
    1LIG   HC10   49  -2.332   0.195  -1.069
    1LIG   HC11   50  -2.356   0.368  -1.105
    1LIG   HC12   51  -2.132   0.334  -1.019
    1LIG   HC13   52  -2.101   0.207  -1.140
    1LIG   HC14   53  -1.995   0.413  -1.211
    1LIG   HC15   54  -2.146   0.504  -1.190
    1LIG   HC16   55  -1.439   0.069  -1.511
    1LIG   HC17   56  -1.062  -0.105  -1.286
    1LIG   HC18   57  -1.196  -0.125  -1.171
    1LIG   HC19   58  -1.184   0.336  -1.174
    1LIG   HC20   59  -1.363   0.443  -1.309
    1LIG   HC21   60  -2.419   0.694  -1.564
    1LIG   HC22   61  -2.404   0.754  -1.397
    1LIG   HC23   62  -2.327   0.842  -1.531
   0.00000   0.00000   0.00000
