Good gRace! Old Maple Actually Chews Slate
   59
    1LIG     C1    1  -1.234   0.433  -1.682
    1LIG     N1    2  -1.255   0.334  -1.585
    1LIG     C2    3  -1.155   0.237  -1.593
    1LIG     C3    4  -1.081   0.267  -1.706
    1LIG     C4    5  -1.128   0.387  -1.760
    1LIG     C5    6  -1.312   0.556  -1.705
    1LIG     C6    7  -1.304   0.669  -1.624
    1LIG     C7    8  -1.391   0.777  -1.641
    1LIG     C8    9  -1.484   0.779  -1.745
    1LIG     C9   10  -1.484   0.673  -1.836
    1LIG    C10   11  -1.401   0.562  -1.815
    1LIG    C11   12  -1.582   0.892  -1.750
    1LIG      O   13  -1.643   0.916  -1.853
    1LIG     N2   14  -1.597   0.969  -1.635
    1LIG     H1   15  -1.536   0.954  -1.557
    1LIG    C12   16  -1.673   1.094  -1.635
    1LIG    C13   17  -1.741   1.113  -1.500
    1LIG    C14   18  -1.580   1.211  -1.666
    1LIG    C15   19  -1.370   0.330  -1.492
    1LIG    C16   20  -1.504   0.300  -1.554
    1LIG     N3   21  -1.610   0.369  -1.504
    1LIG    C17   22  -1.729   0.355  -1.566
    1LIG     HN   23  -1.601   0.429  -1.423
    1LIG    C18   24  -1.745   0.278  -1.681
    1LIG    C19   25  -1.637   0.207  -1.730
    1LIG    C20   26  -1.514   0.218  -1.666
    1LIG     N4   27  -1.837   0.426  -1.515
    1LIG     H2   28  -1.837   0.517  -1.560
    1LIG     H3   29  -1.831   0.433  -1.414
    1LIG    C21   30  -1.136   0.120  -1.505
    1LIG    C22   31  -1.210   0.003  -1.528
    1LIG    C23   32  -1.192  -0.111  -1.449
    1LIG    C24   33  -1.100  -0.109  -1.344
    1LIG    C25   34  -1.026   0.006  -1.320
    1LIG    C26   35  -1.042   0.119  -1.401
    1LIG     HC   36  -0.999   0.208  -1.746
    1LIG    HC1   37  -1.090   0.436  -1.849
    1LIG    HC2   38  -1.229   0.672  -1.546
    1LIG    HC3   39  -1.385   0.861  -1.572
    1LIG    HC4   40  -1.548   0.676  -1.922
    1LIG    HC5   41  -1.404   0.480  -1.884
    1LIG    HC6   42  -1.749   1.089  -1.713
    1LIG    HC7   43  -1.807   1.028  -1.481
    1LIG    HC8   44  -1.800   1.204  -1.502
    1LIG    HC9   45  -1.665   1.119  -1.422
    1LIG   HC10   46  -1.532   1.196  -1.762
    1LIG   HC11   47  -1.638   1.304  -1.668
    1LIG   HC12   48  -1.504   1.218  -1.588
    1LIG   HC13   49  -1.376   0.428  -1.444
    1LIG   HC14   50  -1.349   0.256  -1.416
    1LIG   HC15   51  -1.841   0.274  -1.731
    1LIG   HC16   52  -1.647   0.144  -1.817
    1LIG   HC17   53  -1.428   0.163  -1.702
    1LIG   HC18   54  -1.283   0.001  -1.608
    1LIG   HC19   55  -1.249  -0.200  -1.469
    1LIG   HC20   56  -1.087  -0.196  -1.282
    1LIG   HC21   57  -0.956   0.008  -1.238
    1LIG   HC22   58  -0.981   0.206  -1.383
    1LIG    H28   59  -1.521   0.216  -1.486
   0.00000   0.00000   0.00000
