; Created by cgenff_charmm2gmx.py

[ moleculetype ]
; Name			   nrexcl
LIG				 3

[ atoms ]
;	 nr		  type	resnr residue  atom   cgnr	   charge		mass  typeB    chargeB		massB
; residue	 1 LIG rtp LIG q	qsum
     1     CG2R51      1    LIG     C1      1     -0.202     12.011   ;
     2     NG2R51      1    LIG     N1      2     -0.093     14.007   ;
     3     CG2R51      1    LIG     C2      3     -0.202     12.011   ;
     4     CG2R51      1    LIG     C3      4     -0.231     12.011   ;
     5     CG2R51      1    LIG     C4      5     -0.231     12.011   ;
     6     CG2R61      1    LIG     C5      6      0.129     12.011   ;
     7     CG2R61      1    LIG     C6      7     -0.119     12.011   ;
     8     CG2R61      1    LIG     C7      8     -0.059     12.011   ;
     9     CG2R61      1    LIG     C8      9     -0.107     12.011   ;
    10     CG2R61      1    LIG     C9     10     -0.059     12.011   ;
    11     CG2R61      1    LIG    C10     11     -0.119     12.011   ;
    12      CG2O1      1    LIG    C11     12      0.323     12.011   ;
    13      OG2D1      1    LIG      O     13     -0.463     15.999   ;
    14      NG2S1      1    LIG     N2     14     -0.357     14.007   ;
    15       HGP1      1    LIG     H1     15      0.309      1.008   ;
    16      CG311      1    LIG    C12     16      0.093     12.011   ;
    17      CG331      1    LIG    C13     17     -0.272     12.011   ;
    18      CG331      1    LIG    C14     18     -0.272     12.011   ;
    19      CG321      1    LIG    C15     19      0.137     12.011   ;
    20      CG311      1    LIG    C16     20      0.189     12.011   ;
    21      NG311      1    LIG     N3     21     -0.486     14.007   ;
    22     CG2D1O      1    LIG    C17     22      0.215     12.011   ;
    23     HGPAM1      1    LIG     HN     23      0.358      1.008   ;
    24     CG2DC1      1    LIG    C18     24     -0.435     12.011   ;
    25     CG2DC2      1    LIG    C19     25     -0.142     12.011   ;
    26     CG2DC2      1    LIG    C20     26     -0.306     12.011   ;
    27      NG321      1    LIG     N4     27     -0.745     14.007   ;
    28     HGPAM2      1    LIG     H2     28      0.404      1.008   ;
    29     HGPAM2      1    LIG     H3     29      0.404      1.008   ;
    30     CG2R61      1    LIG    C21     30      0.129     12.011   ;
    31     CG2R61      1    LIG    C22     31     -0.121     12.011   ;
    32     CG2R61      1    LIG    C23     32     -0.115     12.011   ;
    33     CG2R61      1    LIG    C24     33     -0.116     12.011   ;
    34     CG2R61      1    LIG    C25     34     -0.115     12.011   ;
    35     CG2R61      1    LIG    C26     35     -0.121     12.011   ;
    36      HGR51      1    LIG     HC     36      0.202      1.008   ;
    37      HGR51      1    LIG    HC1     37      0.202      1.008   ;
    38      HGR61      1    LIG    HC2     38      0.116      1.008   ;
    39      HGR61      1    LIG    HC3     39      0.116      1.008   ;
    40      HGR61      1    LIG    HC4     40      0.116      1.008   ;
    41      HGR61      1    LIG    HC5     41      0.116      1.008   ;
    42       HGA1      1    LIG    HC6     42      0.090      1.008   ;
    43       HGA3      1    LIG    HC7     43      0.090      1.008   ;
    44       HGA3      1    LIG    HC8     44      0.090      1.008   ;
    45       HGA3      1    LIG    HC9     45      0.090      1.008   ;
    46       HGA3      1    LIG   HC10     46      0.090      1.008   ;
    47       HGA3      1    LIG   HC11     47      0.090      1.008   ;
    48       HGA3      1    LIG   HC12     48      0.090      1.008   ;
    49       HGA2      1    LIG   HC13     49      0.090      1.008   ;
    50       HGA2      1    LIG   HC14     50      0.090      1.008   ;
    51       HGA4      1    LIG   HC15     51      0.150      1.008   ;
    52       HGA4      1    LIG   HC16     52      0.150      1.008   ;
    53       HGA4      1    LIG   HC17     53      0.150      1.008   ;
    54      HGR61      1    LIG   HC18     54      0.116      1.008   ;
    55      HGR61      1    LIG   HC19     55      0.116      1.008   ;
    56      HGR61      1    LIG   HC20     56      0.116      1.008   ;
    57      HGR61      1    LIG   HC21     57      0.116      1.008   ;
    58      HGR61      1    LIG   HC22     58      0.116      1.008   ;
    59       HGA1      1    LIG    H28     59      0.090      1.008   ;

[ bonds ]
;	ai	  aj funct			  c0			c1			  c2			c3
    1     5	 1 ;      CG2R51     CG2R51
    1     6	 1 ;      CG2R51     CG2R61
    1     2	 1 ;      CG2R51     NG2R51
    2     3	 1 ;      NG2R51     CG2R51
    2    19	 1 ;      NG2R51      CG321
    3     4	 1 ;      CG2R51     CG2R51
    3    30	 1 ;      CG2R51     CG2R61
    4     5	 1 ;      CG2R51     CG2R51
    4    36	 1 ;      CG2R51      HGR51
    5    37	 1 ;      CG2R51      HGR51
    6    11	 1 ;      CG2R61     CG2R61
    6     7	 1 ;      CG2R61     CG2R61
    7     8	 1 ;      CG2R61     CG2R61
    7    38	 1 ;      CG2R61      HGR61
    8     9	 1 ;      CG2R61     CG2R61
    8    39	 1 ;      CG2R61      HGR61
    9    10	 1 ;      CG2R61     CG2R61
    9    12	 1 ;      CG2R61      CG2O1
   10    11	 1 ;      CG2R61     CG2R61
   10    40	 1 ;      CG2R61      HGR61
   11    41	 1 ;      CG2R61      HGR61
   12    13	 1 ;       CG2O1      OG2D1
   12    14	 1 ;       CG2O1      NG2S1
   14    15	 1 ;       NG2S1       HGP1
   14    16	 1 ;       NG2S1      CG311
   16    18	 1 ;       CG311      CG331
   16    17	 1 ;       CG311      CG331
   16    42	 1 ;       CG311       HGA1
   17    43	 1 ;       CG331       HGA3
   17    44	 1 ;       CG331       HGA3
   17    45	 1 ;       CG331       HGA3
   18    46	 1 ;       CG331       HGA3
   18    47	 1 ;       CG331       HGA3
   18    48	 1 ;       CG331       HGA3
   19    20	 1 ;       CG321      CG311
   19    49	 1 ;       CG321       HGA2
   19    50	 1 ;       CG321       HGA2
   20    26	 1 ;       CG311     CG2DC2
   20    21	 1 ;       CG311      NG311
   20    59	 1 ;       CG311       HGA1
   21    23	 1 ;       NG311     HGPAM1
   21    22	 1 ;       NG311     CG2D1O
   22    24	 1 ;      CG2D1O     CG2DC1
   22    27	 1 ;      CG2D1O      NG321
   24    25	 1 ;      CG2DC1     CG2DC2
   24    51	 1 ;      CG2DC1       HGA4
   25    26	 1 ;      CG2DC2     CG2DC2
   25    52	 1 ;      CG2DC2       HGA4
   26    53	 1 ;      CG2DC2       HGA4
   27    28	 1 ;       NG321     HGPAM2
   27    29	 1 ;       NG321     HGPAM2
   30    35	 1 ;      CG2R61     CG2R61
   30    31	 1 ;      CG2R61     CG2R61
   31    32	 1 ;      CG2R61     CG2R61
   31    54	 1 ;      CG2R61      HGR61
   32    33	 1 ;      CG2R61     CG2R61
   32    55	 1 ;      CG2R61      HGR61
   33    34	 1 ;      CG2R61     CG2R61
   33    56	 1 ;      CG2R61      HGR61
   34    35	 1 ;      CG2R61     CG2R61
   34    57	 1 ;      CG2R61      HGR61
   35    58	 1 ;      CG2R61      HGR61

[ pairs ]
;	ai	  aj funct			  c0			c1			  c2			c3
    1    30	 1
    1    20	 1
    1    49	 1
    1    50	 1
    1    36	 1
    1    10	 1
    1    41	 1
    1     8	 1
    1    38	 1
    2    37	 1
    2    11	 1
    2     7	 1
    2    36	 1
    2    35	 1
    2    31	 1
    2    26	 1
    2    21	 1
    2    59	 1
    3     6	 1
    3    20	 1
    3    49	 1
    3    50	 1
    3    37	 1
    3    34	 1
    3    58	 1
    3    32	 1
    3    54	 1
    4     6	 1
    4    19	 1
    4    35	 1
    4    31	 1
    5    11	 1
    5     7	 1
    5    19	 1
    5    30	 1
    6    37	 1
    6    19	 1
    6     9	 1
    6    39	 1
    6    40	 1
    7    10	 1
    7    41	 1
    7    12	 1
    8    11	 1
    8    40	 1
    8    13	 1
    8    14	 1
    9    38	 1
    9    41	 1
    9    15	 1
    9    16	 1
   10    39	 1
   10    13	 1
   10    14	 1
   11    38	 1
   11    12	 1
   12    39	 1
   12    40	 1
   12    18	 1
   12    17	 1
   12    42	 1
   13    15	 1
   13    16	 1
   14    46	 1
   14    47	 1
   14    48	 1
   14    43	 1
   14    44	 1
   14    45	 1
   15    18	 1
   15    17	 1
   15    42	 1
   17    46	 1
   17    47	 1
   17    48	 1
   18    43	 1
   18    44	 1
   18    45	 1
   19    30	 1
   19    25	 1
   19    53	 1
   19    23	 1
   19    22	 1
   20    24	 1
   20    27	 1
   20    52	 1
   21    49	 1
   21    50	 1
   21    25	 1
   21    53	 1
   21    51	 1
   21    28	 1
   21    29	 1
   22    26	 1
   22    59	 1
   22    52	 1
   23    26	 1
   23    59	 1
   23    24	 1
   23    27	 1
   24    28	 1
   24    29	 1
   24    53	 1
   25    59	 1
   25    27	 1
   26    49	 1
   26    50	 1
   26    51	 1
   27    51	 1
   30    36	 1
   30    33	 1
   30    55	 1
   30    57	 1
   31    34	 1
   31    58	 1
   31    56	 1
   32    35	 1
   32    57	 1
   33    54	 1
   33    58	 1
   34    55	 1
   35    54	 1
   35    56	 1
   36    37	 1
   38    39	 1
   40    41	 1
   42    46	 1
   42    47	 1
   42    48	 1
   42    43	 1
   42    44	 1
   42    45	 1
   49    59	 1
   50    59	 1
   51    52	 1
   52    53	 1
   53    59	 1
   54    55	 1
   55    56	 1
   56    57	 1
   57    58	 1

[ angles ]
;	ai	  aj	ak funct			c0			  c1			c2			  c3
    5     1     6	5 ;     CG2R51     CG2R51     CG2R61
    5     1     2	5 ;     CG2R51     CG2R51     NG2R51
    6     1     2	5 ;     CG2R61     CG2R51     NG2R51
    1     2     3	5 ;     CG2R51     NG2R51     CG2R51
    1     2    19	5 ;     CG2R51     NG2R51      CG321
    3     2    19	5 ;     CG2R51     NG2R51      CG321
    4     3    30	5 ;     CG2R51     CG2R51     CG2R61
    4     3     2	5 ;     CG2R51     CG2R51     NG2R51
   30     3     2	5 ;     CG2R61     CG2R51     NG2R51
    5     4     3	5 ;     CG2R51     CG2R51     CG2R51
    5     4    36	5 ;     CG2R51     CG2R51      HGR51
    3     4    36	5 ;     CG2R51     CG2R51      HGR51
    4     5     1	5 ;     CG2R51     CG2R51     CG2R51
    4     5    37	5 ;     CG2R51     CG2R51      HGR51
    1     5    37	5 ;     CG2R51     CG2R51      HGR51
    1     6    11	5 ;     CG2R51     CG2R61     CG2R61
    1     6     7	5 ;     CG2R51     CG2R61     CG2R61
   11     6     7	5 ;     CG2R61     CG2R61     CG2R61
    6     7     8	5 ;     CG2R61     CG2R61     CG2R61
    6     7    38	5 ;     CG2R61     CG2R61      HGR61
    8     7    38	5 ;     CG2R61     CG2R61      HGR61
    7     8     9	5 ;     CG2R61     CG2R61     CG2R61
    7     8    39	5 ;     CG2R61     CG2R61      HGR61
    9     8    39	5 ;     CG2R61     CG2R61      HGR61
   10     9     8	5 ;     CG2R61     CG2R61     CG2R61
   10     9    12	5 ;     CG2R61     CG2R61      CG2O1
    8     9    12	5 ;     CG2R61     CG2R61      CG2O1
   11    10     9	5 ;     CG2R61     CG2R61     CG2R61
   11    10    40	5 ;     CG2R61     CG2R61      HGR61
    9    10    40	5 ;     CG2R61     CG2R61      HGR61
    6    11    10	5 ;     CG2R61     CG2R61     CG2R61
    6    11    41	5 ;     CG2R61     CG2R61      HGR61
   10    11    41	5 ;     CG2R61     CG2R61      HGR61
    9    12    13	5 ;     CG2R61      CG2O1      OG2D1
    9    12    14	5 ;     CG2R61      CG2O1      NG2S1
   13    12    14	5 ;      OG2D1      CG2O1      NG2S1
   12    14    15	5 ;      CG2O1      NG2S1       HGP1
   12    14    16	5 ;      CG2O1      NG2S1      CG311
   15    14    16	5 ;       HGP1      NG2S1      CG311
   18    16    14	5 ;      CG331      CG311      NG2S1
   18    16    17	5 ;      CG331      CG311      CG331
   18    16    42	5 ;      CG331      CG311       HGA1
   14    16    17	5 ;      NG2S1      CG311      CG331
   14    16    42	5 ;      NG2S1      CG311       HGA1
   17    16    42	5 ;      CG331      CG311       HGA1
   16    17    43	5 ;      CG311      CG331       HGA3
   16    17    44	5 ;      CG311      CG331       HGA3
   16    17    45	5 ;      CG311      CG331       HGA3
   43    17    44	5 ;       HGA3      CG331       HGA3
   43    17    45	5 ;       HGA3      CG331       HGA3
   44    17    45	5 ;       HGA3      CG331       HGA3
   16    18    46	5 ;      CG311      CG331       HGA3
   16    18    47	5 ;      CG311      CG331       HGA3
   16    18    48	5 ;      CG311      CG331       HGA3
   46    18    47	5 ;       HGA3      CG331       HGA3
   46    18    48	5 ;       HGA3      CG331       HGA3
   47    18    48	5 ;       HGA3      CG331       HGA3
    2    19    20	5 ;     NG2R51      CG321      CG311
    2    19    49	5 ;     NG2R51      CG321       HGA2
    2    19    50	5 ;     NG2R51      CG321       HGA2
   20    19    49	5 ;      CG311      CG321       HGA2
   20    19    50	5 ;      CG311      CG321       HGA2
   49    19    50	5 ;       HGA2      CG321       HGA2
   19    20    26	5 ;      CG321      CG311     CG2DC2
   19    20    21	5 ;      CG321      CG311      NG311
   19    20    59	5 ;      CG321      CG311       HGA1
   26    20    21	5 ;     CG2DC2      CG311      NG311
   26    20    59	5 ;     CG2DC2      CG311       HGA1
   21    20    59	5 ;      NG311      CG311       HGA1
   20    21    23	5 ;      CG311      NG311     HGPAM1
   20    21    22	5 ;      CG311      NG311     CG2D1O
   23    21    22	5 ;     HGPAM1      NG311     CG2D1O
   21    22    24	5 ;      NG311     CG2D1O     CG2DC1
   21    22    27	5 ;      NG311     CG2D1O      NG321
   24    22    27	5 ;     CG2DC1     CG2D1O      NG321
   25    24    22	5 ;     CG2DC2     CG2DC1     CG2D1O
   25    24    51	5 ;     CG2DC2     CG2DC1       HGA4
   22    24    51	5 ;     CG2D1O     CG2DC1       HGA4
   26    25    24	5 ;     CG2DC2     CG2DC2     CG2DC1
   26    25    52	5 ;     CG2DC2     CG2DC2       HGA4
   24    25    52	5 ;     CG2DC1     CG2DC2       HGA4
   20    26    25	5 ;      CG311     CG2DC2     CG2DC2
   20    26    53	5 ;      CG311     CG2DC2       HGA4
   25    26    53	5 ;     CG2DC2     CG2DC2       HGA4
   22    27    28	5 ;     CG2D1O      NG321     HGPAM2
   22    27    29	5 ;     CG2D1O      NG321     HGPAM2
   28    27    29	5 ;     HGPAM2      NG321     HGPAM2
    3    30    35	5 ;     CG2R51     CG2R61     CG2R61
    3    30    31	5 ;     CG2R51     CG2R61     CG2R61
   35    30    31	5 ;     CG2R61     CG2R61     CG2R61
   30    31    32	5 ;     CG2R61     CG2R61     CG2R61
   30    31    54	5 ;     CG2R61     CG2R61      HGR61
   32    31    54	5 ;     CG2R61     CG2R61      HGR61
   31    32    33	5 ;     CG2R61     CG2R61     CG2R61
   31    32    55	5 ;     CG2R61     CG2R61      HGR61
   33    32    55	5 ;     CG2R61     CG2R61      HGR61
   34    33    32	5 ;     CG2R61     CG2R61     CG2R61
   34    33    56	5 ;     CG2R61     CG2R61      HGR61
   32    33    56	5 ;     CG2R61     CG2R61      HGR61
   35    34    33	5 ;     CG2R61     CG2R61     CG2R61
   35    34    57	5 ;     CG2R61     CG2R61      HGR61
   33    34    57	5 ;     CG2R61     CG2R61      HGR61
   30    35    34	5 ;     CG2R61     CG2R61     CG2R61
   30    35    58	5 ;     CG2R61     CG2R61      HGR61
   34    35    58	5 ;     CG2R61     CG2R61      HGR61

[ dihedrals ]
;	ai	  aj	ak	  al funct			  c0			c1			  c2			c3			  c4			c5
    6     1     5     4	 9 ;     CG2R61     CG2R51     CG2R51     CG2R51
    6     1     5    37	 9 ;     CG2R61     CG2R51     CG2R51      HGR51
    2     1     5     4	 9 ;     NG2R51     CG2R51     CG2R51     CG2R51
    2     1     5    37	 9 ;     NG2R51     CG2R51     CG2R51      HGR51
    5     1     6    11	 9 ;     CG2R51     CG2R51     CG2R61     CG2R61
    5     1     6     7	 9 ;     CG2R51     CG2R51     CG2R61     CG2R61
    2     1     6    11	 9 ;     NG2R51     CG2R51     CG2R61     CG2R61
    2     1     6     7	 9 ;     NG2R51     CG2R51     CG2R61     CG2R61
    5     1     2     3	 9 ;     CG2R51     CG2R51     NG2R51     CG2R51
    5     1     2    19	 9 ;     CG2R51     CG2R51     NG2R51      CG321
    6     1     2     3	 9 ;     CG2R61     CG2R51     NG2R51     CG2R51
    6     1     2    19	 9 ;     CG2R61     CG2R51     NG2R51      CG321
    1     2     3     4	 9 ;     CG2R51     NG2R51     CG2R51     CG2R51
    1     2     3    30	 9 ;     CG2R51     NG2R51     CG2R51     CG2R61
   19     2     3     4	 9 ;      CG321     NG2R51     CG2R51     CG2R51
   19     2     3    30	 9 ;      CG321     NG2R51     CG2R51     CG2R61
    1     2    19    20	 9 ;     CG2R51     NG2R51      CG321      CG311
    1     2    19    49	 9 ;     CG2R51     NG2R51      CG321       HGA2
    1     2    19    50	 9 ;     CG2R51     NG2R51      CG321       HGA2
    3     2    19    20	 9 ;     CG2R51     NG2R51      CG321      CG311
    3     2    19    49	 9 ;     CG2R51     NG2R51      CG321       HGA2
    3     2    19    50	 9 ;     CG2R51     NG2R51      CG321       HGA2
   30     3     4     5	 9 ;     CG2R61     CG2R51     CG2R51     CG2R51
   30     3     4    36	 9 ;     CG2R61     CG2R51     CG2R51      HGR51
    2     3     4     5	 9 ;     NG2R51     CG2R51     CG2R51     CG2R51
    2     3     4    36	 9 ;     NG2R51     CG2R51     CG2R51      HGR51
    4     3    30    35	 9 ;     CG2R51     CG2R51     CG2R61     CG2R61
    4     3    30    31	 9 ;     CG2R51     CG2R51     CG2R61     CG2R61
    2     3    30    35	 9 ;     NG2R51     CG2R51     CG2R61     CG2R61
    2     3    30    31	 9 ;     NG2R51     CG2R51     CG2R61     CG2R61
    3     4     5     1	 9 ;     CG2R51     CG2R51     CG2R51     CG2R51
    3     4     5    37	 9 ;     CG2R51     CG2R51     CG2R51      HGR51
   36     4     5     1	 9 ;      HGR51     CG2R51     CG2R51     CG2R51
   36     4     5    37	 9 ;      HGR51     CG2R51     CG2R51      HGR51
    1     6    11    10	 9 ;     CG2R51     CG2R61     CG2R61     CG2R61
    1     6    11    41	 9 ;     CG2R51     CG2R61     CG2R61      HGR61
    7     6    11    10	 9 ;     CG2R61     CG2R61     CG2R61     CG2R61
    7     6    11    41	 9 ;     CG2R61     CG2R61     CG2R61      HGR61
    1     6     7     8	 9 ;     CG2R51     CG2R61     CG2R61     CG2R61
    1     6     7    38	 9 ;     CG2R51     CG2R61     CG2R61      HGR61
   11     6     7     8	 9 ;     CG2R61     CG2R61     CG2R61     CG2R61
   11     6     7    38	 9 ;     CG2R61     CG2R61     CG2R61      HGR61
    6     7     8     9	 9 ;     CG2R61     CG2R61     CG2R61     CG2R61
    6     7     8    39	 9 ;     CG2R61     CG2R61     CG2R61      HGR61
   38     7     8     9	 9 ;      HGR61     CG2R61     CG2R61     CG2R61
   38     7     8    39	 9 ;      HGR61     CG2R61     CG2R61      HGR61
    7     8     9    10	 9 ;     CG2R61     CG2R61     CG2R61     CG2R61
    7     8     9    12	 9 ;     CG2R61     CG2R61     CG2R61      CG2O1
   39     8     9    10	 9 ;      HGR61     CG2R61     CG2R61     CG2R61
   39     8     9    12	 9 ;      HGR61     CG2R61     CG2R61      CG2O1
    8     9    10    11	 9 ;     CG2R61     CG2R61     CG2R61     CG2R61
    8     9    10    40	 9 ;     CG2R61     CG2R61     CG2R61      HGR61
   12     9    10    11	 9 ;      CG2O1     CG2R61     CG2R61     CG2R61
   12     9    10    40	 9 ;      CG2O1     CG2R61     CG2R61      HGR61
   10     9    12    13	 9 ;     CG2R61     CG2R61      CG2O1      OG2D1
   10     9    12    14	 9 ;     CG2R61     CG2R61      CG2O1      NG2S1
    8     9    12    13	 9 ;     CG2R61     CG2R61      CG2O1      OG2D1
    8     9    12    14	 9 ;     CG2R61     CG2R61      CG2O1      NG2S1
    9    10    11     6	 9 ;     CG2R61     CG2R61     CG2R61     CG2R61
    9    10    11    41	 9 ;     CG2R61     CG2R61     CG2R61      HGR61
   40    10    11     6	 9 ;      HGR61     CG2R61     CG2R61     CG2R61
   40    10    11    41	 9 ;      HGR61     CG2R61     CG2R61      HGR61
    9    12    14    15	 9 ;     CG2R61      CG2O1      NG2S1       HGP1
    9    12    14    16	 9 ;     CG2R61      CG2O1      NG2S1      CG311
   13    12    14    15	 9 ;      OG2D1      CG2O1      NG2S1       HGP1
   13    12    14    16	 9 ;      OG2D1      CG2O1      NG2S1      CG311
   12    14    16    18	 9 ;      CG2O1      NG2S1      CG311      CG331
   12    14    16    17	 9 ;      CG2O1      NG2S1      CG311      CG331
   12    14    16    42	 9 ;      CG2O1      NG2S1      CG311       HGA1
   15    14    16    18	 9 ;       HGP1      NG2S1      CG311      CG331
   15    14    16    17	 9 ;       HGP1      NG2S1      CG311      CG331
   15    14    16    42	 9 ;       HGP1      NG2S1      CG311       HGA1
   14    16    18    46	 9 ;      NG2S1      CG311      CG331       HGA3
   14    16    18    47	 9 ;      NG2S1      CG311      CG331       HGA3
   14    16    18    48	 9 ;      NG2S1      CG311      CG331       HGA3
   17    16    18    46	 9 ;      CG331      CG311      CG331       HGA3
   17    16    18    47	 9 ;      CG331      CG311      CG331       HGA3
   17    16    18    48	 9 ;      CG331      CG311      CG331       HGA3
   42    16    18    46	 9 ;       HGA1      CG311      CG331       HGA3
   42    16    18    47	 9 ;       HGA1      CG311      CG331       HGA3
   42    16    18    48	 9 ;       HGA1      CG311      CG331       HGA3
   18    16    17    43	 9 ;      CG331      CG311      CG331       HGA3
   18    16    17    44	 9 ;      CG331      CG311      CG331       HGA3
   18    16    17    45	 9 ;      CG331      CG311      CG331       HGA3
   14    16    17    43	 9 ;      NG2S1      CG311      CG331       HGA3
   14    16    17    44	 9 ;      NG2S1      CG311      CG331       HGA3
   14    16    17    45	 9 ;      NG2S1      CG311      CG331       HGA3
   42    16    17    43	 9 ;       HGA1      CG311      CG331       HGA3
   42    16    17    44	 9 ;       HGA1      CG311      CG331       HGA3
   42    16    17    45	 9 ;       HGA1      CG311      CG331       HGA3
    2    19    20    26	 9 ;     NG2R51      CG321      CG311     CG2DC2
    2    19    20    21	 9 ;     NG2R51      CG321      CG311      NG311
    2    19    20    59	 9 ;     NG2R51      CG321      CG311       HGA1
   49    19    20    26	 9 ;       HGA2      CG321      CG311     CG2DC2
   49    19    20    21	 9 ;       HGA2      CG321      CG311      NG311
   49    19    20    59	 9 ;       HGA2      CG321      CG311       HGA1
   50    19    20    26	 9 ;       HGA2      CG321      CG311     CG2DC2
   50    19    20    21	 9 ;       HGA2      CG321      CG311      NG311
   50    19    20    59	 9 ;       HGA2      CG321      CG311       HGA1
   19    20    26    25	 9 ;      CG321      CG311     CG2DC2     CG2DC2
   19    20    26    53	 9 ;      CG321      CG311     CG2DC2       HGA4
   21    20    26    25	 9 ;      NG311      CG311     CG2DC2     CG2DC2
   21    20    26    53	 9 ;      NG311      CG311     CG2DC2       HGA4
   59    20    26    25	 9 ;       HGA1      CG311     CG2DC2     CG2DC2
   59    20    26    53	 9 ;       HGA1      CG311     CG2DC2       HGA4
   19    20    21    23	 9 ;      CG321      CG311      NG311     HGPAM1
   19    20    21    22	 9 ;      CG321      CG311      NG311     CG2D1O
   26    20    21    23	 9 ;     CG2DC2      CG311      NG311     HGPAM1
   26    20    21    22	 9 ;     CG2DC2      CG311      NG311     CG2D1O
   59    20    21    23	 9 ;       HGA1      CG311      NG311     HGPAM1
   59    20    21    22	 9 ;       HGA1      CG311      NG311     CG2D1O
   20    21    22    24	 9 ;      CG311      NG311     CG2D1O     CG2DC1
   20    21    22    27	 9 ;      CG311      NG311     CG2D1O      NG321
   23    21    22    24	 9 ;     HGPAM1      NG311     CG2D1O     CG2DC1
   23    21    22    27	 9 ;     HGPAM1      NG311     CG2D1O      NG321
   21    22    24    25	 9 ;      NG311     CG2D1O     CG2DC1     CG2DC2
   21    22    24    51	 9 ;      NG311     CG2D1O     CG2DC1       HGA4
   27    22    24    25	 9 ;      NG321     CG2D1O     CG2DC1     CG2DC2
   27    22    24    51	 9 ;      NG321     CG2D1O     CG2DC1       HGA4
   21    22    27    28	 9 ;      NG311     CG2D1O      NG321     HGPAM2
   21    22    27    29	 9 ;      NG311     CG2D1O      NG321     HGPAM2
   24    22    27    28	 9 ;     CG2DC1     CG2D1O      NG321     HGPAM2
   24    22    27    29	 9 ;     CG2DC1     CG2D1O      NG321     HGPAM2
   22    24    25    26	 9 ;     CG2D1O     CG2DC1     CG2DC2     CG2DC2
   22    24    25    52	 9 ;     CG2D1O     CG2DC1     CG2DC2       HGA4
   51    24    25    26	 9 ;       HGA4     CG2DC1     CG2DC2     CG2DC2
   51    24    25    52	 9 ;       HGA4     CG2DC1     CG2DC2       HGA4
   24    25    26    20	 9 ;     CG2DC1     CG2DC2     CG2DC2      CG311
   24    25    26    53	 9 ;     CG2DC1     CG2DC2     CG2DC2       HGA4
   52    25    26    20	 9 ;       HGA4     CG2DC2     CG2DC2      CG311
   52    25    26    53	 9 ;       HGA4     CG2DC2     CG2DC2       HGA4
    3    30    35    34	 9 ;     CG2R51     CG2R61     CG2R61     CG2R61
    3    30    35    58	 9 ;     CG2R51     CG2R61     CG2R61      HGR61
   31    30    35    34	 9 ;     CG2R61     CG2R61     CG2R61     CG2R61
   31    30    35    58	 9 ;     CG2R61     CG2R61     CG2R61      HGR61
    3    30    31    32	 9 ;     CG2R51     CG2R61     CG2R61     CG2R61
    3    30    31    54	 9 ;     CG2R51     CG2R61     CG2R61      HGR61
   35    30    31    32	 9 ;     CG2R61     CG2R61     CG2R61     CG2R61
   35    30    31    54	 9 ;     CG2R61     CG2R61     CG2R61      HGR61
   30    31    32    33	 9 ;     CG2R61     CG2R61     CG2R61     CG2R61
   30    31    32    55	 9 ;     CG2R61     CG2R61     CG2R61      HGR61
   54    31    32    33	 9 ;      HGR61     CG2R61     CG2R61     CG2R61
   54    31    32    55	 9 ;      HGR61     CG2R61     CG2R61      HGR61
   31    32    33    34	 9 ;     CG2R61     CG2R61     CG2R61     CG2R61
   31    32    33    56	 9 ;     CG2R61     CG2R61     CG2R61      HGR61
   55    32    33    34	 9 ;      HGR61     CG2R61     CG2R61     CG2R61
   55    32    33    56	 9 ;      HGR61     CG2R61     CG2R61      HGR61
   32    33    34    35	 9 ;     CG2R61     CG2R61     CG2R61     CG2R61
   32    33    34    57	 9 ;     CG2R61     CG2R61     CG2R61      HGR61
   56    33    34    35	 9 ;      HGR61     CG2R61     CG2R61     CG2R61
   56    33    34    57	 9 ;      HGR61     CG2R61     CG2R61      HGR61
   33    34    35    30	 9 ;     CG2R61     CG2R61     CG2R61     CG2R61
   33    34    35    58	 9 ;     CG2R61     CG2R61     CG2R61      HGR61
   57    34    35    30	 9 ;      HGR61     CG2R61     CG2R61     CG2R61
   57    34    35    58	 9 ;      HGR61     CG2R61     CG2R61      HGR61

[ dihedrals ]
;	ai	  aj	ak	  al funct			  c0			c1			  c2			c3
   12     9    14    13	 2
   22    24    21    27	 2

