GROup of MAchos and Cynical Suckers
   29
    1LIG     O2    1   8.468   1.178   9.138
    1LIG     C2    2   8.580   1.288   9.318
    1LIG     C3    3   8.560   1.182   9.217
    1LIG     O3    4   8.653   1.477   9.503
    1LIG     C4    5   8.508   1.641   9.413
    1LIG     C5    6   8.411   1.672   9.316
    1LIG     C6    7   8.539   1.732   9.514
    1LIG     C7    8   8.344   1.796   9.324
    1LIG     C8    9   8.474   1.855   9.520
    1LIG     C9   10   8.377   1.887   9.425
    1LIG    C10   11   8.550   1.417   9.298
    1LIG    C11   12   8.495   1.482   9.175
    1LIG    C12   13   8.577   1.509   9.413
    1LIG    C13   14   8.376   1.571   9.209
    1LIG     C1   15   8.198   1.950   9.214
    1LIG     O1   16   8.248   1.818   9.228
    1LIG     O4   17   8.657   1.089   9.225
    1LIG    H12   18   8.625   0.999   9.248
    1LIG     H1   19   8.620   1.261   9.409
    1LIG     H2   20   8.611   1.708   9.585
    1LIG     H3   21   8.498   1.923   9.594
    1LIG     H4   22   8.328   1.978   9.430
    1LIG     H5   23   8.571   1.542   9.129
    1LIG     H6   24   8.462   1.406   9.107
    1LIG     H7   25   8.295   1.510   9.244
    1LIG     H8   26   8.347   1.625   9.121
    1LIG     H9   27   8.125   1.953   9.136
    1LIG    H10   28   8.279   2.016   9.189
    1LIG    H11   29   8.153   1.982   9.306
   0.00000   0.00000   0.00000
