; Created by cgenff_charmm2gmx.py

[ moleculetype ]
; Name			   nrexcl
LIG				 3

[ atoms ]
;	 nr		  type	resnr residue  atom   cgnr	   charge		mass  typeB    chargeB		massB
; residue	 1 LIG rtp LIG q	qsum
     1      OG2D1      1    LIG     O2      1     -0.464     15.999   ;
     2     CG2DC1      1    LIG     C2      2     -0.082     12.011   ;
     3      CG2O2      1    LIG     C3      3      0.595     12.011   ;
     4      OG2D3      1    LIG     O3      4     -0.309     15.999   ;
     5     CG2R61      1    LIG     C4      5      0.162     12.011   ;
     6     CG2R61      1    LIG     C5      6      0.059     12.011   ;
     7     CG2R61      1    LIG     C6      7     -0.117     12.011   ;
     8     CG2R61      1    LIG     C7      8      0.197     12.011   ;
     9     CG2R61      1    LIG     C8      9     -0.108     12.011   ;
    10     CG2R61      1    LIG     C9     10     -0.117     12.011   ;
    11     CG2DC1      1    LIG    C10     11     -0.194     12.011   ;
    12      CG321      1    LIG    C11     12     -0.247     12.011   ;
    13      CG2O5      1    LIG    C12     13      0.301     12.011   ;
    14      CG321      1    LIG    C13     14     -0.151     12.011   ;
    15      CG331      1    LIG     C1     15     -0.094     12.011   ;
    16      OG301      1    LIG     O1     16     -0.366     15.999   ;
    17      OG311      1    LIG     O4     17     -0.591     15.999   ;
    18       HGP1      1    LIG    H12     18      0.435      1.008   ;
    19       HGA4      1    LIG     H1     19      0.113      1.008   ;
    20      HGR61      1    LIG     H2     20      0.116      1.008   ;
    21      HGR61      1    LIG     H3     21      0.116      1.008   ;
    22      HGR61      1    LIG     H4     22      0.116      1.008   ;
    23       HGA2      1    LIG     H5     23      0.090      1.008   ;
    24       HGA2      1    LIG     H6     24      0.090      1.008   ;
    25       HGA2      1    LIG     H7     25      0.090      1.008   ;
    26       HGA2      1    LIG     H8     26      0.090      1.008   ;
    27       HGA3      1    LIG     H9     27      0.090      1.008   ;
    28       HGA3      1    LIG    H10     28      0.090      1.008   ;
    29       HGA3      1    LIG    H11     29      0.090      1.008   ;

[ bonds ]
;	ai	  aj funct			  c0			c1			  c2			c3
    1     3	 1 ;       OG2D1      CG2O2
    2     3	 1 ;      CG2DC1      CG2O2
    2    11	 1 ;      CG2DC1     CG2DC1
    2    19	 1 ;      CG2DC1       HGA4
    3    17	 1 ;       CG2O2      OG311
    4    13	 1 ;       OG2D3      CG2O5
    5     6	 1 ;      CG2R61     CG2R61
    5    13	 1 ;      CG2R61      CG2O5
    5     7	 1 ;      CG2R61     CG2R61
    6    14	 1 ;      CG2R61      CG321
    6     8	 1 ;      CG2R61     CG2R61
    7     9	 1 ;      CG2R61     CG2R61
    7    20	 1 ;      CG2R61      HGR61
    8    16	 1 ;      CG2R61      OG301
    8    10	 1 ;      CG2R61     CG2R61
    9    10	 1 ;      CG2R61     CG2R61
    9    21	 1 ;      CG2R61      HGR61
   10    22	 1 ;      CG2R61      HGR61
   11    12	 1 ;      CG2DC1      CG321
   11    13	 1 ;      CG2DC1      CG2O5
   12    14	 1 ;       CG321      CG321
   12    23	 1 ;       CG321       HGA2
   12    24	 1 ;       CG321       HGA2
   14    25	 1 ;       CG321       HGA2
   14    26	 1 ;       CG321       HGA2
   15    16	 1 ;       CG331      OG301
   15    27	 1 ;       CG331       HGA3
   15    28	 1 ;       CG331       HGA3
   15    29	 1 ;       CG331       HGA3
   17    18	 1 ;       OG311       HGP1

[ pairs ]
;	ai	  aj funct			  c0			c1			  c2			c3
    1    11	 1
    1    19	 1
    1    18	 1
    2    18	 1
    2    14	 1
    2    23	 1
    2    24	 1
    2     5	 1
    2     4	 1
    3    12	 1
    3    13	 1
    4     6	 1
    4     7	 1
    4    12	 1
    5    12	 1
    5    25	 1
    5    26	 1
    5    16	 1
    5    10	 1
    5    21	 1
    6    11	 1
    6     9	 1
    6    20	 1
    6    15	 1
    6    22	 1
    6    23	 1
    6    24	 1
    7    14	 1
    7     8	 1
    7    11	 1
    7    22	 1
    8    13	 1
    8    12	 1
    8    25	 1
    8    26	 1
    8    21	 1
    8    27	 1
    8    28	 1
    8    29	 1
    9    13	 1
    9    16	 1
   10    14	 1
   10    20	 1
   10    15	 1
   11    17	 1
   11    25	 1
   11    26	 1
   12    19	 1
   13    19	 1
   13    14	 1
   13    20	 1
   13    23	 1
   13    24	 1
   14    16	 1
   16    22	 1
   17    19	 1
   20    21	 1
   21    22	 1
   23    25	 1
   23    26	 1
   24    25	 1
   24    26	 1

[ angles ]
;	ai	  aj	ak funct			c0			  c1			c2			  c3
    3     2    11	5 ;      CG2O2     CG2DC1     CG2DC1
    3     2    19	5 ;      CG2O2     CG2DC1       HGA4
   11     2    19	5 ;     CG2DC1     CG2DC1       HGA4
    1     3    17	5 ;      OG2D1      CG2O2      OG311
    1     3     2	5 ;      OG2D1      CG2O2     CG2DC1
   17     3     2	5 ;      OG311      CG2O2     CG2DC1
    6     5    13	5 ;     CG2R61     CG2R61      CG2O5
    6     5     7	5 ;     CG2R61     CG2R61     CG2R61
   13     5     7	5 ;      CG2O5     CG2R61     CG2R61
   14     6     8	5 ;      CG321     CG2R61     CG2R61
   14     6     5	5 ;      CG321     CG2R61     CG2R61
    8     6     5	5 ;     CG2R61     CG2R61     CG2R61
    5     7     9	5 ;     CG2R61     CG2R61     CG2R61
    5     7    20	5 ;     CG2R61     CG2R61      HGR61
    9     7    20	5 ;     CG2R61     CG2R61      HGR61
   16     8     6	5 ;      OG301     CG2R61     CG2R61
   16     8    10	5 ;      OG301     CG2R61     CG2R61
    6     8    10	5 ;     CG2R61     CG2R61     CG2R61
   10     9     7	5 ;     CG2R61     CG2R61     CG2R61
   10     9    21	5 ;     CG2R61     CG2R61      HGR61
    7     9    21	5 ;     CG2R61     CG2R61      HGR61
    8    10     9	5 ;     CG2R61     CG2R61     CG2R61
    8    10    22	5 ;     CG2R61     CG2R61      HGR61
    9    10    22	5 ;     CG2R61     CG2R61      HGR61
   12    11     2	5 ;      CG321     CG2DC1     CG2DC1
   12    11    13	5 ;      CG321     CG2DC1      CG2O5
    2    11    13	5 ;     CG2DC1     CG2DC1      CG2O5
   14    12    11	5 ;      CG321      CG321     CG2DC1
   14    12    23	5 ;      CG321      CG321       HGA2
   14    12    24	5 ;      CG321      CG321       HGA2
   11    12    23	5 ;     CG2DC1      CG321       HGA2
   11    12    24	5 ;     CG2DC1      CG321       HGA2
   23    12    24	5 ;       HGA2      CG321       HGA2
   11    13     5	5 ;     CG2DC1      CG2O5     CG2R61
   11    13     4	5 ;     CG2DC1      CG2O5      OG2D3
    5    13     4	5 ;     CG2R61      CG2O5      OG2D3
   12    14     6	5 ;      CG321      CG321     CG2R61
   12    14    25	5 ;      CG321      CG321       HGA2
   12    14    26	5 ;      CG321      CG321       HGA2
    6    14    25	5 ;     CG2R61      CG321       HGA2
    6    14    26	5 ;     CG2R61      CG321       HGA2
   25    14    26	5 ;       HGA2      CG321       HGA2
   16    15    27	5 ;      OG301      CG331       HGA3
   16    15    28	5 ;      OG301      CG331       HGA3
   16    15    29	5 ;      OG301      CG331       HGA3
   27    15    28	5 ;       HGA3      CG331       HGA3
   27    15    29	5 ;       HGA3      CG331       HGA3
   28    15    29	5 ;       HGA3      CG331       HGA3
   15    16     8	5 ;      CG331      OG301     CG2R61
    3    17    18	5 ;      CG2O2      OG311       HGP1

[ dihedrals ]
;	ai	  aj	ak	  al funct			  c0			c1			  c2			c3			  c4			c5
   11     2     3     1	 9 ;     CG2DC1     CG2DC1      CG2O2      OG2D1
   11     2     3    17	 9 ;     CG2DC1     CG2DC1      CG2O2      OG311
   19     2     3     1	 9 ;       HGA4     CG2DC1      CG2O2      OG2D1
   19     2     3    17	 9 ;       HGA4     CG2DC1      CG2O2      OG311
    3     2    11    12	 9 ;      CG2O2     CG2DC1     CG2DC1      CG321
    3     2    11    13	 9 ;      CG2O2     CG2DC1     CG2DC1      CG2O5
   19     2    11    12	 9 ;       HGA4     CG2DC1     CG2DC1      CG321
   19     2    11    13	 9 ;       HGA4     CG2DC1     CG2DC1      CG2O5
    1     3    17    18	 9 ;      OG2D1      CG2O2      OG311       HGP1
    2     3    17    18	 9 ;     CG2DC1      CG2O2      OG311       HGP1
   13     5     6    14	 9 ;      CG2O5     CG2R61     CG2R61      CG321
   13     5     6     8	 9 ;      CG2O5     CG2R61     CG2R61     CG2R61
    7     5     6    14	 9 ;     CG2R61     CG2R61     CG2R61      CG321
    7     5     6     8	 9 ;     CG2R61     CG2R61     CG2R61     CG2R61
    6     5    13    11	 9 ;     CG2R61     CG2R61      CG2O5     CG2DC1
    6     5    13     4	 9 ;     CG2R61     CG2R61      CG2O5      OG2D3
    7     5    13    11	 9 ;     CG2R61     CG2R61      CG2O5     CG2DC1
    7     5    13     4	 9 ;     CG2R61     CG2R61      CG2O5      OG2D3
    6     5     7     9	 9 ;     CG2R61     CG2R61     CG2R61     CG2R61
    6     5     7    20	 9 ;     CG2R61     CG2R61     CG2R61      HGR61
   13     5     7     9	 9 ;      CG2O5     CG2R61     CG2R61     CG2R61
   13     5     7    20	 9 ;      CG2O5     CG2R61     CG2R61      HGR61
    8     6    14    12	 9 ;     CG2R61     CG2R61      CG321      CG321
    8     6    14    25	 9 ;     CG2R61     CG2R61      CG321       HGA2
    8     6    14    26	 9 ;     CG2R61     CG2R61      CG321       HGA2
    5     6    14    12	 9 ;     CG2R61     CG2R61      CG321      CG321
    5     6    14    25	 9 ;     CG2R61     CG2R61      CG321       HGA2
    5     6    14    26	 9 ;     CG2R61     CG2R61      CG321       HGA2
   14     6     8    16	 9 ;      CG321     CG2R61     CG2R61      OG301
   14     6     8    10	 9 ;      CG321     CG2R61     CG2R61     CG2R61
    5     6     8    16	 9 ;     CG2R61     CG2R61     CG2R61      OG301
    5     6     8    10	 9 ;     CG2R61     CG2R61     CG2R61     CG2R61
    5     7     9    10	 9 ;     CG2R61     CG2R61     CG2R61     CG2R61
    5     7     9    21	 9 ;     CG2R61     CG2R61     CG2R61      HGR61
   20     7     9    10	 9 ;      HGR61     CG2R61     CG2R61     CG2R61
   20     7     9    21	 9 ;      HGR61     CG2R61     CG2R61      HGR61
    6     8    16    15	 9 ;     CG2R61     CG2R61      OG301      CG331
   10     8    16    15	 9 ;     CG2R61     CG2R61      OG301      CG331
   16     8    10     9	 9 ;      OG301     CG2R61     CG2R61     CG2R61
   16     8    10    22	 9 ;      OG301     CG2R61     CG2R61      HGR61
    6     8    10     9	 9 ;     CG2R61     CG2R61     CG2R61     CG2R61
    6     8    10    22	 9 ;     CG2R61     CG2R61     CG2R61      HGR61
    7     9    10     8	 9 ;     CG2R61     CG2R61     CG2R61     CG2R61
    7     9    10    22	 9 ;     CG2R61     CG2R61     CG2R61      HGR61
   21     9    10     8	 9 ;      HGR61     CG2R61     CG2R61     CG2R61
   21     9    10    22	 9 ;      HGR61     CG2R61     CG2R61      HGR61
    2    11    12    14	 9 ;     CG2DC1     CG2DC1      CG321      CG321
    2    11    12    23	 9 ;     CG2DC1     CG2DC1      CG321       HGA2
    2    11    12    24	 9 ;     CG2DC1     CG2DC1      CG321       HGA2
   13    11    12    14	 9 ;      CG2O5     CG2DC1      CG321      CG321
   13    11    12    23	 9 ;      CG2O5     CG2DC1      CG321       HGA2
   13    11    12    24	 9 ;      CG2O5     CG2DC1      CG321       HGA2
   12    11    13     5	 9 ;      CG321     CG2DC1      CG2O5     CG2R61
   12    11    13     4	 9 ;      CG321     CG2DC1      CG2O5      OG2D3
    2    11    13     5	 9 ;     CG2DC1     CG2DC1      CG2O5     CG2R61
    2    11    13     4	 9 ;     CG2DC1     CG2DC1      CG2O5      OG2D3
   11    12    14     6	 9 ;     CG2DC1      CG321      CG321     CG2R61
   11    12    14    25	 9 ;     CG2DC1      CG321      CG321       HGA2
   11    12    14    26	 9 ;     CG2DC1      CG321      CG321       HGA2
   23    12    14     6	 9 ;       HGA2      CG321      CG321     CG2R61
   23    12    14    25	 9 ;       HGA2      CG321      CG321       HGA2
   23    12    14    26	 9 ;       HGA2      CG321      CG321       HGA2
   24    12    14     6	 9 ;       HGA2      CG321      CG321     CG2R61
   24    12    14    25	 9 ;       HGA2      CG321      CG321       HGA2
   24    12    14    26	 9 ;       HGA2      CG321      CG321       HGA2
   27    15    16     8	 9 ;       HGA3      CG331      OG301     CG2R61
   28    15    16     8	 9 ;       HGA3      CG331      OG301     CG2R61
   29    15    16     8	 9 ;       HGA3      CG331      OG301     CG2R61

[ dihedrals ]
;	ai	  aj	ak	  al funct			  c0			c1			  c2			c3
    3     2     1    17	 2
   13    11     5     4	 2

