Getting the Right Output Means no Artefacts in Calculating Stuff
   45
    1LIG     C1    1  -1.629   0.512  -1.559
    1LIG     C2    2  -1.597   0.642  -1.602
    1LIG     C3    3  -1.696   0.737  -1.634
    1LIG     C4    4  -1.830   0.696  -1.625
    1LIG     C5    5  -1.864   0.566  -1.587
    1LIG     C6    6  -1.764   0.474  -1.555
    1LIG     N1    7  -1.534   0.417  -1.518
    1LIG     C7    8  -1.448   0.344  -1.599
    1LIG     O1    9  -1.440   0.352  -1.721
    1LIG     H1   10  -1.518   0.405  -1.418
    1LIG     C8   11  -1.358   0.249  -1.526
    1LIG     C9   12  -1.323   0.277  -1.394
    1LIG    C10   13  -1.230   0.195  -1.330
    1LIG    C11   14  -1.176   0.087  -1.400
    1LIG     CL   15  -1.058  -0.013  -1.327
    1LIG    C12   16  -1.220   0.064  -1.530
    1LIG     N2   17  -1.309   0.142  -1.596
    1LIG    HN3   18  -1.339   0.122  -1.691
    1LIG    C13   19  -1.659   0.880  -1.675
    1LIG     N3   20  -1.617   0.963  -1.559
    1LIG    C14   21  -1.714   1.046  -1.543
    1LIG    HN4   22  -1.531   0.956  -1.505
    1LIG     O2   23  -1.818   1.047  -1.629
    1LIG    C15   24  -1.778   0.958  -1.733
    1LIG    C16   25  -1.541   0.879  -1.773
    1LIG     N4   26  -1.724   1.140  -1.446
    1LIG     H2   27  -1.816   1.144  -1.403
    1LIG     H3   28  -1.646   1.142  -1.382
    1LIG     HC   29  -1.493   0.670  -1.609
    1LIG    HC1   30  -1.909   0.767  -1.648
    1LIG    HC2   31  -1.967   0.536  -1.582
    1LIG    HC3   32  -1.790   0.373  -1.527
    1LIG    HC4   33  -1.367   0.361  -1.342
    1LIG    HC5   34  -1.200   0.214  -1.228
    1LIG    HC6   35  -1.179  -0.021  -1.582
    1LIG    HN2   36  -1.662   0.898  -1.496
    1LIG    HC7   37  -1.766   0.974  -1.479
    1LIG    HC8   38  -1.859   0.890  -1.759
    1LIG    HC9   39  -1.746   1.015  -1.821
    1LIG   HC10   40  -1.458   0.823  -1.730
    1LIG   HC11   41  -1.571   0.832  -1.867
    1LIG   HC12   42  -1.509   0.982  -1.793
    1LIG    HN1   43  -1.717   1.227  -1.497
    1LIG    H21   44  -1.444   0.191  -1.493
    1LIG    LP1   45  -0.944  -0.108  -1.257
   0.00000   0.00000   0.00000
