; Created by cgenff_charmm2gmx.py

[ moleculetype ]
; Name			   nrexcl
LIG				 3

[ atoms ]
;	 nr		  type	resnr residue  atom   cgnr	   charge		mass  typeB    chargeB		massB
; residue	 1 LIG rtp LIG q	qsum
     1     CG2R61      1    LIG     C1      1      0.149     12.011   ;
     2     CG2R61      1    LIG     C2      2     -0.135     12.011   ;
     3     CG2R61      1    LIG     C3      3     -0.187     12.011   ;
     4     CG2R61      1    LIG     C4      4     -0.132     12.011   ;
     5     CG2R61      1    LIG     C5      5     -0.102     12.011   ;
     6     CG2R61      1    LIG     C6      6     -0.119     12.011   ;
     7      NG2S1      1    LIG     N1      7     -0.504     14.007   ;
     8      CG2O1      1    LIG     C7      8      0.362     12.011   ;
     9      OG2D1      1    LIG     O1      9     -0.480     15.999   ;
    10       HGP1      1    LIG     H1     10      0.329      1.008   ;
    11      CG311      1    LIG     C8     11      0.436     12.011   ;
    12     CG2DC1      1    LIG     C9     12     -0.316     12.011   ;
    13     CG2DC1      1    LIG    C10     13     -0.198     12.011   ;
    14     CG2DC2      1    LIG    C11     14      0.029     12.011   ;
    15      CLGA1      1    LIG     CL     15     -0.066     35.453   ;
    16     CG2D2O      1    LIG    C12     16     -0.138     12.011   ;
    17      NG311      1    LIG     N2     17     -0.573     14.007   ;
    18     HGPAM1      1    LIG    HN3     18      0.375      1.008   ;
    19     CG3C50      1    LIG    C13     19      0.883     12.011   ;
    20      NG3P2      1    LIG     N3     20     -1.486     14.007   ;
    21     CG3C53      1    LIG    C14     21      1.712     12.011   ;
    22       HGP2      1    LIG    HN4     22      0.483      1.008   ;
    23     OG3C51      1    LIG     O2     23     -0.225     15.999   ;
    24     CG3C52      1    LIG    C15     24     -0.013     12.011   ;
    25      CG331      1    LIG    C16     25     -0.317     12.011   ;
    26      NG3P3      1    LIG     N4     26     -0.781     14.007   ;
    27       HGP2      1    LIG     H2     27      0.307      1.008   ;
    28       HGP2      1    LIG     H3     28      0.307      1.008   ;
    29      HGR61      1    LIG     HC     29      0.116      1.008   ;
    30      HGR61      1    LIG    HC1     30      0.116      1.008   ;
    31      HGR61      1    LIG    HC2     31      0.116      1.008   ;
    32      HGR61      1    LIG    HC3     32      0.116      1.008   ;
    33       HGA4      1    LIG    HC4     33      0.154      1.008   ;
    34       HGA4      1    LIG    HC5     34      0.150      1.008   ;
    35       HGA4      1    LIG    HC6     35      0.162      1.008   ;
    36       HGP2      1    LIG    HN2     36      0.483      1.008   ;
    37       HGA1      1    LIG    HC7     37      0.090      1.008   ;
    38       HGA2      1    LIG    HC8     38      0.090      1.008   ;
    39       HGA2      1    LIG    HC9     39      0.090      1.008   ;
    40       HGA3      1    LIG   HC10     40      0.090      1.008   ;
    41       HGA3      1    LIG   HC11     41      0.090      1.008   ;
    42       HGA3      1    LIG   HC12     42      0.090      1.008   ;
    43       HGP2      1    LIG    HN1     43      0.307      1.008   ;
    44       HGA1      1    LIG    H21     44      0.090      1.008   ;
    45        LPH      1    LIG    LP1     45      0.050      0.000   ;

[ bonds ]
;	ai	  aj funct			  c0			c1			  c2			c3
    1     2	 1 ;      CG2R61     CG2R61
    1     7	 1 ;      CG2R61      NG2S1
    1     6	 1 ;      CG2R61     CG2R61
    2     3	 1 ;      CG2R61     CG2R61
    2    29	 1 ;      CG2R61      HGR61
    3    19	 1 ;      CG2R61     CG3C50
    3     4	 1 ;      CG2R61     CG2R61
    4     5	 1 ;      CG2R61     CG2R61
    4    30	 1 ;      CG2R61      HGR61
    5     6	 1 ;      CG2R61     CG2R61
    5    31	 1 ;      CG2R61      HGR61
    6    32	 1 ;      CG2R61      HGR61
    7     8	 1 ;       NG2S1      CG2O1
    7    10	 1 ;       NG2S1       HGP1
    8     9	 1 ;       CG2O1      OG2D1
    8    11	 1 ;       CG2O1      CG311
   11    17	 1 ;       CG311      NG311
   11    12	 1 ;       CG311     CG2DC1
   11    44	 1 ;       CG311       HGA1
   12    13	 1 ;      CG2DC1     CG2DC1
   12    33	 1 ;      CG2DC1       HGA4
   13    14	 1 ;      CG2DC1     CG2DC2
   13    34	 1 ;      CG2DC1       HGA4
   14    15	 1 ;      CG2DC2      CLGA1
   14    16	 1 ;      CG2DC2     CG2D2O
   16    17	 1 ;      CG2D2O      NG311
   16    35	 1 ;      CG2D2O       HGA4
   17    18	 1 ;       NG311     HGPAM1
   19    25	 1 ;      CG3C50      CG331
   19    20	 1 ;      CG3C50      NG3P2
   19    24	 1 ;      CG3C50     CG3C52
   20    22	 1 ;       NG3P2       HGP2
   20    21	 1 ;       NG3P2     CG3C53
   20    36	 1 ;       NG3P2       HGP2
   21    23	 1 ;      CG3C53     OG3C51
   21    26	 1 ;      CG3C53      NG3P3
   21    37	 1 ;      CG3C53       HGA1
   23    24	 1 ;      OG3C51     CG3C52
   24    38	 1 ;      CG3C52       HGA2
   24    39	 1 ;      CG3C52       HGA2
   25    40	 1 ;       CG331       HGA3
   25    41	 1 ;       CG331       HGA3
   25    42	 1 ;       CG331       HGA3
   26    28	 1 ;       NG3P3       HGP2
   26    27	 1 ;       NG3P3       HGP2
   26    43	 1 ;       NG3P3       HGP2

[ pairs ]
;	ai	  aj funct			  c0			c1			  c2			c3
    1    19	 1
    1     4	 1
    1    31	 1
    1     9	 1
    1    11	 1
    2     8	 1
    2    10	 1
    2     5	 1
    2    32	 1
    2    25	 1
    2    20	 1
    2    24	 1
    2    30	 1
    3     7	 1
    3     6	 1
    3    31	 1
    3    40	 1
    3    41	 1
    3    42	 1
    3    22	 1
    3    21	 1
    3    36	 1
    3    23	 1
    3    38	 1
    3    39	 1
    4    29	 1
    4    25	 1
    4    20	 1
    4    24	 1
    4    32	 1
    5     7	 1
    5    19	 1
    6    29	 1
    6     8	 1
    6    10	 1
    6    30	 1
    7    29	 1
    7    32	 1
    7    17	 1
    7    12	 1
    7    44	 1
    8    18	 1
    8    16	 1
    8    13	 1
    8    33	 1
    9    10	 1
    9    17	 1
    9    12	 1
    9    44	 1
   10    11	 1
   11    14	 1
   11    34	 1
   11    35	 1
   12    18	 1
   12    16	 1
   12    15	 1
   45    12	 1
   13    17	 1
   13    44	 1
   13    35	 1
   14    33	 1
   14    18	 1
   15    34	 1
   45    34	 1
   15    17	 1
   45    17	 1
   15    35	 1
   45    35	 1
   16    44	 1
   16    34	 1
   17    33	 1
   18    44	 1
   18    35	 1
   19    29	 1
   19    30	 1
   19    26	 1
   19    37	 1
   20    40	 1
   20    41	 1
   20    42	 1
   20    38	 1
   20    39	 1
   20    28	 1
   20    27	 1
   20    43	 1
   21    25	 1
   21    38	 1
   21    39	 1
   22    25	 1
   22    24	 1
   22    23	 1
   22    26	 1
   22    37	 1
   23    25	 1
   23    36	 1
   23    28	 1
   23    27	 1
   23    43	 1
   24    40	 1
   24    41	 1
   24    42	 1
   24    36	 1
   24    26	 1
   24    37	 1
   25    36	 1
   25    38	 1
   25    39	 1
   26    36	 1
   27    37	 1
   28    37	 1
   30    31	 1
   31    32	 1
   33    44	 1
   33    34	 1
   36    37	 1
   37    43	 1

[ angles ]
;	ai	  aj	ak funct			c0			  c1			c2			  c3
    2     1     7	5 ;     CG2R61     CG2R61      NG2S1
    2     1     6	5 ;     CG2R61     CG2R61     CG2R61
    7     1     6	5 ;      NG2S1     CG2R61     CG2R61
    3     2     1	5 ;     CG2R61     CG2R61     CG2R61
    3     2    29	5 ;     CG2R61     CG2R61      HGR61
    1     2    29	5 ;     CG2R61     CG2R61      HGR61
   19     3     2	5 ;     CG3C50     CG2R61     CG2R61
   19     3     4	5 ;     CG3C50     CG2R61     CG2R61
    2     3     4	5 ;     CG2R61     CG2R61     CG2R61
    3     4     5	5 ;     CG2R61     CG2R61     CG2R61
    3     4    30	5 ;     CG2R61     CG2R61      HGR61
    5     4    30	5 ;     CG2R61     CG2R61      HGR61
    4     5     6	5 ;     CG2R61     CG2R61     CG2R61
    4     5    31	5 ;     CG2R61     CG2R61      HGR61
    6     5    31	5 ;     CG2R61     CG2R61      HGR61
    1     6     5	5 ;     CG2R61     CG2R61     CG2R61
    1     6    32	5 ;     CG2R61     CG2R61      HGR61
    5     6    32	5 ;     CG2R61     CG2R61      HGR61
    8     7     1	5 ;      CG2O1      NG2S1     CG2R61
    8     7    10	5 ;      CG2O1      NG2S1       HGP1
    1     7    10	5 ;     CG2R61      NG2S1       HGP1
    9     8    11	5 ;      OG2D1      CG2O1      CG311
    9     8     7	5 ;      OG2D1      CG2O1      NG2S1
   11     8     7	5 ;      CG311      CG2O1      NG2S1
   17    11     8	5 ;      NG311      CG311      CG2O1
   17    11    12	5 ;      NG311      CG311     CG2DC1
   17    11    44	5 ;      NG311      CG311       HGA1
    8    11    12	5 ;      CG2O1      CG311     CG2DC1
    8    11    44	5 ;      CG2O1      CG311       HGA1
   12    11    44	5 ;     CG2DC1      CG311       HGA1
   11    12    13	5 ;      CG311     CG2DC1     CG2DC1
   11    12    33	5 ;      CG311     CG2DC1       HGA4
   13    12    33	5 ;     CG2DC1     CG2DC1       HGA4
   14    13    12	5 ;     CG2DC2     CG2DC1     CG2DC1
   14    13    34	5 ;     CG2DC2     CG2DC1       HGA4
   12    13    34	5 ;     CG2DC1     CG2DC1       HGA4
   15    14    16	5 ;      CLGA1     CG2DC2     CG2D2O
   15    14    13	5 ;      CLGA1     CG2DC2     CG2DC1
   16    14    13	5 ;     CG2D2O     CG2DC2     CG2DC1
   17    16    14	5 ;      NG311     CG2D2O     CG2DC2
   17    16    35	5 ;      NG311     CG2D2O       HGA4
   14    16    35	5 ;     CG2DC2     CG2D2O       HGA4
   18    17    16	5 ;     HGPAM1      NG311     CG2D2O
   18    17    11	5 ;     HGPAM1      NG311      CG311
   16    17    11	5 ;     CG2D2O      NG311      CG311
   25    19    20	5 ;      CG331     CG3C50      NG3P2
   25    19    24	5 ;      CG331     CG3C50     CG3C52
   25    19     3	5 ;      CG331     CG3C50     CG2R61
   20    19    24	5 ;      NG3P2     CG3C50     CG3C52
   20    19     3	5 ;      NG3P2     CG3C50     CG2R61
   24    19     3	5 ;     CG3C52     CG3C50     CG2R61
   22    20    19	5 ;       HGP2      NG3P2     CG3C50
   22    20    21	5 ;       HGP2      NG3P2     CG3C53
   22    20    36	5 ;       HGP2      NG3P2       HGP2
   19    20    21	5 ;     CG3C50      NG3P2     CG3C53
   19    20    36	5 ;     CG3C50      NG3P2       HGP2
   21    20    36	5 ;     CG3C53      NG3P2       HGP2
   20    21    23	5 ;      NG3P2     CG3C53     OG3C51
   20    21    26	5 ;      NG3P2     CG3C53      NG3P3
   20    21    37	5 ;      NG3P2     CG3C53       HGA1
   23    21    26	5 ;     OG3C51     CG3C53      NG3P3
   23    21    37	5 ;     OG3C51     CG3C53       HGA1
   26    21    37	5 ;      NG3P3     CG3C53       HGA1
   24    23    21	5 ;     CG3C52     OG3C51     CG3C53
   19    24    23	5 ;     CG3C50     CG3C52     OG3C51
   19    24    38	5 ;     CG3C50     CG3C52       HGA2
   19    24    39	5 ;     CG3C50     CG3C52       HGA2
   23    24    38	5 ;     OG3C51     CG3C52       HGA2
   23    24    39	5 ;     OG3C51     CG3C52       HGA2
   38    24    39	5 ;       HGA2     CG3C52       HGA2
   19    25    40	5 ;     CG3C50      CG331       HGA3
   19    25    41	5 ;     CG3C50      CG331       HGA3
   19    25    42	5 ;     CG3C50      CG331       HGA3
   40    25    41	5 ;       HGA3      CG331       HGA3
   40    25    42	5 ;       HGA3      CG331       HGA3
   41    25    42	5 ;       HGA3      CG331       HGA3
   21    26    28	5 ;     CG3C53      NG3P3       HGP2
   21    26    27	5 ;     CG3C53      NG3P3       HGP2
   21    26    43	5 ;     CG3C53      NG3P3       HGP2
   28    26    27	5 ;       HGP2      NG3P3       HGP2
   28    26    43	5 ;       HGP2      NG3P3       HGP2
   27    26    43	5 ;       HGP2      NG3P3       HGP2

[ dihedrals ]
;	ai	  aj	ak	  al funct			  c0			c1			  c2			c3			  c4			c5
    7     1     2     3	 9 ;      NG2S1     CG2R61     CG2R61     CG2R61
    7     1     2    29	 9 ;      NG2S1     CG2R61     CG2R61      HGR61
    6     1     2     3	 9 ;     CG2R61     CG2R61     CG2R61     CG2R61
    6     1     2    29	 9 ;     CG2R61     CG2R61     CG2R61      HGR61
    2     1     7     8	 9 ;     CG2R61     CG2R61      NG2S1      CG2O1
    2     1     7    10	 9 ;     CG2R61     CG2R61      NG2S1       HGP1
    6     1     7     8	 9 ;     CG2R61     CG2R61      NG2S1      CG2O1
    6     1     7    10	 9 ;     CG2R61     CG2R61      NG2S1       HGP1
    2     1     6     5	 9 ;     CG2R61     CG2R61     CG2R61     CG2R61
    2     1     6    32	 9 ;     CG2R61     CG2R61     CG2R61      HGR61
    7     1     6     5	 9 ;      NG2S1     CG2R61     CG2R61     CG2R61
    7     1     6    32	 9 ;      NG2S1     CG2R61     CG2R61      HGR61
    1     2     3    19	 9 ;     CG2R61     CG2R61     CG2R61     CG3C50
    1     2     3     4	 9 ;     CG2R61     CG2R61     CG2R61     CG2R61
   29     2     3    19	 9 ;      HGR61     CG2R61     CG2R61     CG3C50
   29     2     3     4	 9 ;      HGR61     CG2R61     CG2R61     CG2R61
    2     3    19    25	 9 ;     CG2R61     CG2R61     CG3C50      CG331
    2     3    19    20	 9 ;     CG2R61     CG2R61     CG3C50      NG3P2
    2     3    19    24	 9 ;     CG2R61     CG2R61     CG3C50     CG3C52
    4     3    19    25	 9 ;     CG2R61     CG2R61     CG3C50      CG331
    4     3    19    20	 9 ;     CG2R61     CG2R61     CG3C50      NG3P2
    4     3    19    24	 9 ;     CG2R61     CG2R61     CG3C50     CG3C52
   19     3     4     5	 9 ;     CG3C50     CG2R61     CG2R61     CG2R61
   19     3     4    30	 9 ;     CG3C50     CG2R61     CG2R61      HGR61
    2     3     4     5	 9 ;     CG2R61     CG2R61     CG2R61     CG2R61
    2     3     4    30	 9 ;     CG2R61     CG2R61     CG2R61      HGR61
    3     4     5     6	 9 ;     CG2R61     CG2R61     CG2R61     CG2R61
    3     4     5    31	 9 ;     CG2R61     CG2R61     CG2R61      HGR61
   30     4     5     6	 9 ;      HGR61     CG2R61     CG2R61     CG2R61
   30     4     5    31	 9 ;      HGR61     CG2R61     CG2R61      HGR61
    4     5     6     1	 9 ;     CG2R61     CG2R61     CG2R61     CG2R61
    4     5     6    32	 9 ;     CG2R61     CG2R61     CG2R61      HGR61
   31     5     6     1	 9 ;      HGR61     CG2R61     CG2R61     CG2R61
   31     5     6    32	 9 ;      HGR61     CG2R61     CG2R61      HGR61
    1     7     8     9	 9 ;     CG2R61      NG2S1      CG2O1      OG2D1
    1     7     8    11	 9 ;     CG2R61      NG2S1      CG2O1      CG311
   10     7     8     9	 9 ;       HGP1      NG2S1      CG2O1      OG2D1
   10     7     8    11	 9 ;       HGP1      NG2S1      CG2O1      CG311
    9     8    11    17	 9 ;      OG2D1      CG2O1      CG311      NG311
    9     8    11    12	 9 ;      OG2D1      CG2O1      CG311     CG2DC1
    9     8    11    44	 9 ;      OG2D1      CG2O1      CG311       HGA1
    7     8    11    17	 9 ;      NG2S1      CG2O1      CG311      NG311
    7     8    11    12	 9 ;      NG2S1      CG2O1      CG311     CG2DC1
    7     8    11    44	 9 ;      NG2S1      CG2O1      CG311       HGA1
    8    11    17    18	 9 ;      CG2O1      CG311      NG311     HGPAM1
    8    11    17    16	 9 ;      CG2O1      CG311      NG311     CG2D2O
   12    11    17    18	 9 ;     CG2DC1      CG311      NG311     HGPAM1
   12    11    17    16	 9 ;     CG2DC1      CG311      NG311     CG2D2O
   44    11    17    18	 9 ;       HGA1      CG311      NG311     HGPAM1
   44    11    17    16	 9 ;       HGA1      CG311      NG311     CG2D2O
   17    11    12    13	 9 ;      NG311      CG311     CG2DC1     CG2DC1
   17    11    12    33	 9 ;      NG311      CG311     CG2DC1       HGA4
    8    11    12    13	 9 ;      CG2O1      CG311     CG2DC1     CG2DC1
    8    11    12    33	 9 ;      CG2O1      CG311     CG2DC1       HGA4
   44    11    12    13	 9 ;       HGA1      CG311     CG2DC1     CG2DC1
   44    11    12    33	 9 ;       HGA1      CG311     CG2DC1       HGA4
   11    12    13    14	 9 ;      CG311     CG2DC1     CG2DC1     CG2DC2
   11    12    13    34	 9 ;      CG311     CG2DC1     CG2DC1       HGA4
   33    12    13    14	 9 ;       HGA4     CG2DC1     CG2DC1     CG2DC2
   33    12    13    34	 9 ;       HGA4     CG2DC1     CG2DC1       HGA4
   12    13    14    15	 9 ;     CG2DC1     CG2DC1     CG2DC2      CLGA1
   12    13    14    16	 9 ;     CG2DC1     CG2DC1     CG2DC2     CG2D2O
   34    13    14    15	 9 ;       HGA4     CG2DC1     CG2DC2      CLGA1
   34    13    14    16	 9 ;       HGA4     CG2DC1     CG2DC2     CG2D2O
   15    14    16    17	 9 ;      CLGA1     CG2DC2     CG2D2O      NG311
   15    14    16    35	 9 ;      CLGA1     CG2DC2     CG2D2O       HGA4
   13    14    16    17	 9 ;     CG2DC1     CG2DC2     CG2D2O      NG311
   13    14    16    35	 9 ;     CG2DC1     CG2DC2     CG2D2O       HGA4
   14    16    17    18	 9 ;     CG2DC2     CG2D2O      NG311     HGPAM1
   14    16    17    11	 9 ;     CG2DC2     CG2D2O      NG311      CG311
   35    16    17    18	 9 ;       HGA4     CG2D2O      NG311     HGPAM1
   35    16    17    11	 9 ;       HGA4     CG2D2O      NG311      CG311
   20    19    25    40	 9 ;      NG3P2     CG3C50      CG331       HGA3
   20    19    25    41	 9 ;      NG3P2     CG3C50      CG331       HGA3
   20    19    25    42	 9 ;      NG3P2     CG3C50      CG331       HGA3
   24    19    25    40	 9 ;     CG3C52     CG3C50      CG331       HGA3
   24    19    25    41	 9 ;     CG3C52     CG3C50      CG331       HGA3
   24    19    25    42	 9 ;     CG3C52     CG3C50      CG331       HGA3
    3    19    25    40	 9 ;     CG2R61     CG3C50      CG331       HGA3
    3    19    25    41	 9 ;     CG2R61     CG3C50      CG331       HGA3
    3    19    25    42	 9 ;     CG2R61     CG3C50      CG331       HGA3
   25    19    20    22	 9 ;      CG331     CG3C50      NG3P2       HGP2
   25    19    20    21	 9 ;      CG331     CG3C50      NG3P2     CG3C53
   25    19    20    36	 9 ;      CG331     CG3C50      NG3P2       HGP2
   24    19    20    22	 9 ;     CG3C52     CG3C50      NG3P2       HGP2
   24    19    20    21	 9 ;     CG3C52     CG3C50      NG3P2     CG3C53
   24    19    20    36	 9 ;     CG3C52     CG3C50      NG3P2       HGP2
    3    19    20    22	 9 ;     CG2R61     CG3C50      NG3P2       HGP2
    3    19    20    21	 9 ;     CG2R61     CG3C50      NG3P2     CG3C53
    3    19    20    36	 9 ;     CG2R61     CG3C50      NG3P2       HGP2
   25    19    24    23	 9 ;      CG331     CG3C50     CG3C52     OG3C51
   25    19    24    38	 9 ;      CG331     CG3C50     CG3C52       HGA2
   25    19    24    39	 9 ;      CG331     CG3C50     CG3C52       HGA2
   20    19    24    23	 9 ;      NG3P2     CG3C50     CG3C52     OG3C51
   20    19    24    38	 9 ;      NG3P2     CG3C50     CG3C52       HGA2
   20    19    24    39	 9 ;      NG3P2     CG3C50     CG3C52       HGA2
    3    19    24    23	 9 ;     CG2R61     CG3C50     CG3C52     OG3C51
    3    19    24    38	 9 ;     CG2R61     CG3C50     CG3C52       HGA2
    3    19    24    39	 9 ;     CG2R61     CG3C50     CG3C52       HGA2
   22    20    21    23	 9 ;       HGP2      NG3P2     CG3C53     OG3C51
   22    20    21    26	 9 ;       HGP2      NG3P2     CG3C53      NG3P3
   22    20    21    37	 9 ;       HGP2      NG3P2     CG3C53       HGA1
   19    20    21    23	 9 ;     CG3C50      NG3P2     CG3C53     OG3C51
   19    20    21    26	 9 ;     CG3C50      NG3P2     CG3C53      NG3P3
   19    20    21    37	 9 ;     CG3C50      NG3P2     CG3C53       HGA1
   36    20    21    23	 9 ;       HGP2      NG3P2     CG3C53     OG3C51
   36    20    21    26	 9 ;       HGP2      NG3P2     CG3C53      NG3P3
   36    20    21    37	 9 ;       HGP2      NG3P2     CG3C53       HGA1
   20    21    23    24	 9 ;      NG3P2     CG3C53     OG3C51     CG3C52
   26    21    23    24	 9 ;      NG3P3     CG3C53     OG3C51     CG3C52
   37    21    23    24	 9 ;       HGA1     CG3C53     OG3C51     CG3C52
   20    21    26    28	 9 ;      NG3P2     CG3C53      NG3P3       HGP2
   20    21    26    27	 9 ;      NG3P2     CG3C53      NG3P3       HGP2
   20    21    26    43	 9 ;      NG3P2     CG3C53      NG3P3       HGP2
   23    21    26    28	 9 ;     OG3C51     CG3C53      NG3P3       HGP2
   23    21    26    27	 9 ;     OG3C51     CG3C53      NG3P3       HGP2
   23    21    26    43	 9 ;     OG3C51     CG3C53      NG3P3       HGP2
   37    21    26    28	 9 ;       HGA1     CG3C53      NG3P3       HGP2
   37    21    26    27	 9 ;       HGA1     CG3C53      NG3P3       HGP2
   37    21    26    43	 9 ;       HGA1     CG3C53      NG3P3       HGP2
   21    23    24    19	 9 ;     CG3C53     OG3C51     CG3C52     CG3C50
   21    23    24    38	 9 ;     CG3C53     OG3C51     CG3C52       HGA2
   21    23    24    39	 9 ;     CG3C53     OG3C51     CG3C52       HGA2

[ dihedrals ]
;	ai	  aj	ak	  al funct			  c0			c1			  c2			c3
    8    11     7     9	 2
   16    14    17    35	 2

[ virtual_sites2 ]
; Site   from				funct a
   45    15    14     2   -0.164

[ exclusions ]
;	ai	  aj
   15    45
   45    14
   45    16
   45    13
   45    12
   45    34
   45    17
   45    35

