GROningen MAchine for Chemical Simulation
   90
    1LIG     C1    1  -1.774   0.470  -1.599
    1LIG     N1    2  -1.626   0.461  -1.613
    1LIG     C2    3  -1.566   0.396  -1.720
    1LIG     O1    4  -1.623   0.391  -1.828
    1LIG     H1    5  -1.576   0.460  -1.525
    1LIG     C3    6  -1.427   0.338  -1.702
    1LIG     C4    7  -1.410   0.224  -1.622
    1LIG     C5    8  -1.285   0.162  -1.609
    1LIG     C6    9  -1.174   0.220  -1.673
    1LIG     C7   10  -1.188   0.335  -1.751
    1LIG     C8   11  -1.314   0.394  -1.765
    1LIG     C9   12  -1.068   0.394  -1.821
    1LIG    C10   13  -1.258   0.045  -1.520
    1LIG     O2   14  -1.257  -0.066  -1.574
    1LIG     N2   15  -1.233   0.060  -1.382
    1LIG    C11   16  -1.189  -0.060  -1.308
    1LIG    C12   17  -1.043  -0.105  -1.330
    1LIG    C13   18  -0.942   0.008  -1.330
    1LIG    C14   19  -1.271   0.178  -1.304
    1LIG    C15   20  -1.174   0.296  -1.313
    1LIG    C16   21  -1.203   0.409  -1.216
    1LIG    C17   22  -1.811   0.434  -1.451
    1LIG    C18   23  -1.952   0.377  -1.442
    1LIG    C19   24  -2.059   0.453  -1.393
    1LIG    C20   25  -2.184   0.393  -1.372
    1LIG     F1   26  -2.283   0.467  -1.322
    1LIG    C21   27  -2.205   0.259  -1.399
    1LIG    C22   28  -2.100   0.185  -1.453
    1LIG    C23   29  -1.975   0.243  -1.476
    1LIG     F2   30  -2.117   0.055  -1.478
    1LIG    C24   31  -1.829   0.609  -1.643
    1LIG     O3   32  -1.887   0.608  -1.773
    1LIG     H2   33  -1.825   0.613  -1.848
    1LIG    C25   34  -1.729   0.726  -1.622
    1LIG     N3   35  -1.805   0.861  -1.639
    1LIG    C26   36  -1.721   0.980  -1.599
    1LIG     H3   37  -1.844   0.871  -1.734
    1LIG     H4   38  -1.890   0.859  -1.579
    1LIG    C27   39  -1.588   0.985  -1.678
    1LIG     N4   40  -1.514   0.851  -1.670
    1LIG    C28   41  -1.603   0.733  -1.715
    1LIG     H5   42  -1.487   0.833  -1.572
    1LIG    C29   43  -1.378   0.854  -1.742
    1LIG    C30   44  -1.271   0.775  -1.669
    1LIG    C31   45  -1.298   0.708  -1.548
    1LIG    C32   46  -1.199   0.636  -1.482
    1LIG    C33   47  -1.070   0.629  -1.536
    1LIG    C34   48  -1.042   0.693  -1.656
    1LIG    C35   49  -1.141   0.766  -1.723
    1LIG     HC   50  -1.818   0.394  -1.664
    1LIG    HC1   51  -1.495   0.183  -1.570
    1LIG    HC2   52  -1.076   0.175  -1.661
    1LIG    HC3   53  -1.325   0.484  -1.825
    1LIG    HC4   54  -1.032   0.324  -1.897
    1LIG    HC5   55  -1.096   0.488  -1.869
    1LIG    HC6   56  -0.989   0.412  -1.748
    1LIG    HC7   57  -1.253  -0.143  -1.338
    1LIG    HC8   58  -1.203  -0.043  -1.202
    1LIG    HC9   59  -1.017  -0.175  -1.250
    1LIG   HC10   60  -1.036  -0.158  -1.425
    1LIG   HC11   61  -0.842  -0.032  -1.345
    1LIG   HC12   62  -0.946   0.060  -1.234
    1LIG   HC13   63  -0.966   0.078  -1.410
    1LIG   HC14   64  -1.369   0.212  -1.339
    1LIG   HC15   65  -1.280   0.149  -1.199
    1LIG   HC16   66  -1.178   0.336  -1.414
    1LIG   HC17   67  -1.073   0.259  -1.294
    1LIG   HC18   68  -1.130   0.488  -1.229
    1LIG   HC19   69  -1.303   0.448  -1.236
    1LIG   HC20   70  -1.198   0.372  -1.114
    1LIG   HC21   71  -1.740   0.360  -1.413
    1LIG   HC22   72  -1.805   0.524  -1.390
    1LIG   HC23   73  -2.045   0.558  -1.372
    1LIG   HC24   74  -2.300   0.213  -1.379
    1LIG   HC25   75  -1.896   0.184  -1.519
    1LIG   HC26   76  -1.912   0.630  -1.575
    1LIG   HC27   77  -1.693   0.721  -1.519
    1LIG   HC28   78  -1.778   1.071  -1.619
    1LIG   HC29   79  -1.699   0.975  -1.492
    1LIG   HC30   80  -1.609   1.008  -1.782
    1LIG   HC31   81  -1.525   1.064  -1.636
    1LIG   HC32   82  -1.547   0.640  -1.708
    1LIG   HC33   83  -1.635   0.748  -1.818
    1LIG   HC34   84  -1.391   0.813  -1.842
    1LIG   HC35   85  -1.345   0.958  -1.750
    1LIG   HC36   86  -1.398   0.712  -1.506
    1LIG   HC37   87  -1.221   0.586  -1.390
    1LIG   HC38   88  -0.992   0.575  -1.485
    1LIG   HC39   89  -0.943   0.686  -1.699
    1LIG   HC40   90  -1.118   0.815  -1.816
   0.00000   0.00000   0.00000
