; Created by cgenff_charmm2gmx.py

[ moleculetype ]
; Name			   nrexcl
LIG				 3

[ atoms ]
;	 nr		  type	resnr residue  atom   cgnr	   charge		mass  typeB    chargeB		massB
; residue	 1 LIG rtp LIG q	qsum
     1      CG311      1    LIG     C1      1     -0.003     12.011   ;
     2      NG2S1      1    LIG     N1      2     -0.226     14.007   ;
     3      CG2O1      1    LIG     C2      3      0.302     12.011   ;
     4      OG2D1      1    LIG     O1      4     -0.463     15.999   ;
     5       HGP1      1    LIG     H1      5      0.262      1.008   ;
     6     CG2R61      1    LIG     C3      6     -0.120     12.011   ;
     7     CG2R61      1    LIG     C4      7     -0.003     12.011   ;
     8     CG2R61      1    LIG     C5      8     -0.179     12.011   ;
     9     CG2R61      1    LIG     C6      9     -0.064     12.011   ;
    10     CG2R61      1    LIG     C7     10      0.038     12.011   ;
    11     CG2R61      1    LIG     C8     11     -0.065     12.011   ;
    12      CG331      1    LIG     C9     12     -0.264     12.011   ;
    13      CG2O1      1    LIG    C10     13      0.400     12.011   ;
    14      OG2D1      1    LIG     O2     14     -0.476     15.999   ;
    15      NG2S0      1    LIG     N2     15     -0.418     14.007   ;
    16      CG321      1    LIG    C11     16      0.096     12.011   ;
    17      CG321      1    LIG    C12     17     -0.170     12.011   ;
    18      CG331      1    LIG    C13     18     -0.285     12.011   ;
    19      CG321      1    LIG    C14     19      0.096     12.011   ;
    20      CG321      1    LIG    C15     20     -0.170     12.011   ;
    21      CG331      1    LIG    C16     21     -0.285     12.011   ;
    22      CG321      1    LIG    C17     22     -0.095     12.011   ;
    23     CG2R61      1    LIG    C18     23      0.057     12.011   ;
    24     CG2R61      1    LIG    C19     24     -0.218     12.011   ;
    25     CG2R66      1    LIG    C20     25      0.261     12.011   ;
    26       FGR1      1    LIG     F1     26     -0.210     18.998   ;
    27     CG2R61      1    LIG    C21     27     -0.240     12.011   ;
    28     CG2R66      1    LIG    C22     28      0.261     12.011   ;
    29     CG2R61      1    LIG    C23     29     -0.218     12.011   ;
    30       FGR1      1    LIG     F2     30     -0.210     18.998   ;
    31      CG311      1    LIG    C24     31      0.222     12.011   ;
    32      OG311      1    LIG     O3     32     -0.598     15.999   ;
    33       HGP1      1    LIG     H2     33      0.422      1.008   ;
    34      CG314      1    LIG    C25     34      0.083     12.011   ;
    35      NG3P2      1    LIG     N3     35     -0.387     14.007   ;
    36      CG324      1    LIG    C26     36      0.121     12.011   ;
    37       HGP2      1    LIG     H3     37      0.351      1.008   ;
    38       HGP2      1    LIG     H4     38      0.351      1.008   ;
    39      CG324      1    LIG    C27     39      0.096     12.011   ;
    40      NG3P1      1    LIG     N4     40     -0.282     14.007   ;
    41      CG324      1    LIG    C28     41      0.079     12.011   ;
    42       HGP2      1    LIG     H5     42      0.371      1.008   ;
    43      CG324      1    LIG    C29     43      0.111     12.011   ;
    44     CG2R61      1    LIG    C30     44      0.066     12.011   ;
    45     CG2R61      1    LIG    C31     45     -0.120     12.011   ;
    46     CG2R61      1    LIG    C32     46     -0.111     12.011   ;
    47     CG2R61      1    LIG    C33     47     -0.116     12.011   ;
    48     CG2R61      1    LIG    C34     48     -0.111     12.011   ;
    49     CG2R61      1    LIG    C35     49     -0.120     12.011   ;
    50       HGA1      1    LIG     HC     50      0.090      1.008   ;
    51      HGR61      1    LIG    HC1     51      0.116      1.008   ;
    52      HGR61      1    LIG    HC2     52      0.116      1.008   ;
    53      HGR61      1    LIG    HC3     53      0.116      1.008   ;
    54       HGA3      1    LIG    HC4     54      0.090      1.008   ;
    55       HGA3      1    LIG    HC5     55      0.090      1.008   ;
    56       HGA3      1    LIG    HC6     56      0.090      1.008   ;
    57       HGA2      1    LIG    HC7     57      0.090      1.008   ;
    58       HGA2      1    LIG    HC8     58      0.090      1.008   ;
    59       HGA2      1    LIG    HC9     59      0.090      1.008   ;
    60       HGA2      1    LIG   HC10     60      0.090      1.008   ;
    61       HGA3      1    LIG   HC11     61      0.090      1.008   ;
    62       HGA3      1    LIG   HC12     62      0.090      1.008   ;
    63       HGA3      1    LIG   HC13     63      0.090      1.008   ;
    64       HGA2      1    LIG   HC14     64      0.090      1.008   ;
    65       HGA2      1    LIG   HC15     65      0.090      1.008   ;
    66       HGA2      1    LIG   HC16     66      0.090      1.008   ;
    67       HGA2      1    LIG   HC17     67      0.090      1.008   ;
    68       HGA3      1    LIG   HC18     68      0.090      1.008   ;
    69       HGA3      1    LIG   HC19     69      0.090      1.008   ;
    70       HGA3      1    LIG   HC20     70      0.090      1.008   ;
    71       HGA2      1    LIG   HC21     71      0.090      1.008   ;
    72       HGA2      1    LIG   HC22     72      0.090      1.008   ;
    73      HGR62      1    LIG   HC23     73      0.174      1.008   ;
    74      HGR62      1    LIG   HC24     74      0.186      1.008   ;
    75      HGR62      1    LIG   HC25     75      0.174      1.008   ;
    76       HGA1      1    LIG   HC26     76      0.090      1.008   ;
    77       HGA1      1    LIG   HC27     77      0.109      1.008   ;
    78       HGA2      1    LIG   HC28     78      0.090      1.008   ;
    79       HGA2      1    LIG   HC29     79      0.090      1.008   ;
    80       HGA2      1    LIG   HC30     80      0.090      1.008   ;
    81       HGA2      1    LIG   HC31     81      0.090      1.008   ;
    82       HGA2      1    LIG   HC32     82      0.090      1.008   ;
    83       HGA2      1    LIG   HC33     83      0.090      1.008   ;
    84       HGA2      1    LIG   HC34     84      0.090      1.008   ;
    85       HGA2      1    LIG   HC35     85      0.090      1.008   ;
    86      HGR61      1    LIG   HC36     86      0.116      1.008   ;
    87      HGR61      1    LIG   HC37     87      0.116      1.008   ;
    88      HGR61      1    LIG   HC38     88      0.116      1.008   ;
    89      HGR61      1    LIG   HC39     89      0.116      1.008   ;
    90      HGR61      1    LIG   HC40     90      0.116      1.008   ;

[ bonds ]
;	ai	  aj funct			  c0			c1			  c2			c3
    1     2	 1 ;       CG311      NG2S1
    1    31	 1 ;       CG311      CG311
    1    22	 1 ;       CG311      CG321
    1    50	 1 ;       CG311       HGA1
    2     3	 1 ;       NG2S1      CG2O1
    2     5	 1 ;       NG2S1       HGP1
    3     6	 1 ;       CG2O1     CG2R61
    3     4	 1 ;       CG2O1      OG2D1
    6    11	 1 ;      CG2R61     CG2R61
    6     7	 1 ;      CG2R61     CG2R61
    7     8	 1 ;      CG2R61     CG2R61
    7    51	 1 ;      CG2R61      HGR61
    8     9	 1 ;      CG2R61     CG2R61
    8    13	 1 ;      CG2R61      CG2O1
    9    10	 1 ;      CG2R61     CG2R61
    9    52	 1 ;      CG2R61      HGR61
   10    12	 1 ;      CG2R61      CG331
   10    11	 1 ;      CG2R61     CG2R61
   11    53	 1 ;      CG2R61      HGR61
   12    54	 1 ;       CG331       HGA3
   12    55	 1 ;       CG331       HGA3
   12    56	 1 ;       CG331       HGA3
   13    14	 1 ;       CG2O1      OG2D1
   13    15	 1 ;       CG2O1      NG2S0
   15    16	 1 ;       NG2S0      CG321
   15    19	 1 ;       NG2S0      CG321
   16    17	 1 ;       CG321      CG321
   16    57	 1 ;       CG321       HGA2
   16    58	 1 ;       CG321       HGA2
   17    18	 1 ;       CG321      CG331
   17    59	 1 ;       CG321       HGA2
   17    60	 1 ;       CG321       HGA2
   18    61	 1 ;       CG331       HGA3
   18    62	 1 ;       CG331       HGA3
   18    63	 1 ;       CG331       HGA3
   19    20	 1 ;       CG321      CG321
   19    64	 1 ;       CG321       HGA2
   19    65	 1 ;       CG321       HGA2
   20    21	 1 ;       CG321      CG331
   20    66	 1 ;       CG321       HGA2
   20    67	 1 ;       CG321       HGA2
   21    68	 1 ;       CG331       HGA3
   21    69	 1 ;       CG331       HGA3
   21    70	 1 ;       CG331       HGA3
   22    23	 1 ;       CG321     CG2R61
   22    71	 1 ;       CG321       HGA2
   22    72	 1 ;       CG321       HGA2
   23    29	 1 ;      CG2R61     CG2R61
   23    24	 1 ;      CG2R61     CG2R61
   24    25	 1 ;      CG2R61     CG2R66
   24    73	 1 ;      CG2R61      HGR62
   25    27	 1 ;      CG2R66     CG2R61
   25    26	 1 ;      CG2R66       FGR1
   27    28	 1 ;      CG2R61     CG2R66
   27    74	 1 ;      CG2R61      HGR62
   28    29	 1 ;      CG2R66     CG2R61
   28    30	 1 ;      CG2R66       FGR1
   29    75	 1 ;      CG2R61      HGR62
   31    34	 1 ;       CG311      CG314
   31    32	 1 ;       CG311      OG311
   31    76	 1 ;       CG311       HGA1
   32    33	 1 ;       OG311       HGP1
   34    41	 1 ;       CG314      CG324
   34    35	 1 ;       CG314      NG3P2
   34    77	 1 ;       CG314       HGA1
   35    36	 1 ;       NG3P2      CG324
   35    37	 1 ;       NG3P2       HGP2
   35    38	 1 ;       NG3P2       HGP2
   36    39	 1 ;       CG324      CG324
   36    78	 1 ;       CG324       HGA2
   36    79	 1 ;       CG324       HGA2
   39    40	 1 ;       CG324      NG3P1
   39    80	 1 ;       CG324       HGA2
   39    81	 1 ;       CG324       HGA2
   40    43	 1 ;       NG3P1      CG324
   40    42	 1 ;       NG3P1       HGP2
   40    41	 1 ;       NG3P1      CG324
   41    82	 1 ;       CG324       HGA2
   41    83	 1 ;       CG324       HGA2
   43    44	 1 ;       CG324     CG2R61
   43    84	 1 ;       CG324       HGA2
   43    85	 1 ;       CG324       HGA2
   44    49	 1 ;      CG2R61     CG2R61
   44    45	 1 ;      CG2R61     CG2R61
   45    46	 1 ;      CG2R61     CG2R61
   45    86	 1 ;      CG2R61      HGR61
   46    47	 1 ;      CG2R61     CG2R61
   46    87	 1 ;      CG2R61      HGR61
   47    48	 1 ;      CG2R61     CG2R61
   47    88	 1 ;      CG2R61      HGR61
   48    49	 1 ;      CG2R61     CG2R61
   48    89	 1 ;      CG2R61      HGR61
   49    90	 1 ;      CG2R61      HGR61

[ pairs ]
;	ai	  aj funct			  c0			c1			  c2			c3
    1     6	 1
    1     4	 1
    1    29	 1
    1    24	 1
    1    41	 1
    1    35	 1
    1    77	 1
    1    33	 1
    2    34	 1
    2    32	 1
    2    76	 1
    2    23	 1
    2    71	 1
    2    72	 1
    2    11	 1
    2     7	 1
    3    31	 1
    3    22	 1
    3    50	 1
    3    10	 1
    3    53	 1
    3     8	 1
    3    51	 1
    4     5	 1
    4    11	 1
    4     7	 1
    5    31	 1
    5    22	 1
    5    50	 1
    5     6	 1
    6     9	 1
    6    13	 1
    6    12	 1
    7    10	 1
    7    53	 1
    7    52	 1
    7    14	 1
    7    15	 1
    8    11	 1
    8    12	 1
    8    16	 1
    8    19	 1
    9    51	 1
    9    14	 1
    9    15	 1
    9    54	 1
    9    55	 1
    9    56	 1
    9    53	 1
   10    13	 1
   11    51	 1
   11    52	 1
   11    54	 1
   11    55	 1
   11    56	 1
   12    52	 1
   12    53	 1
   13    51	 1
   13    52	 1
   13    17	 1
   13    57	 1
   13    58	 1
   13    20	 1
   13    64	 1
   13    65	 1
   14    16	 1
   14    19	 1
   15    18	 1
   15    59	 1
   15    60	 1
   15    21	 1
   15    66	 1
   15    67	 1
   16    20	 1
   16    64	 1
   16    65	 1
   16    61	 1
   16    62	 1
   16    63	 1
   17    19	 1
   18    57	 1
   18    58	 1
   19    57	 1
   19    58	 1
   19    68	 1
   19    69	 1
   19    70	 1
   21    64	 1
   21    65	 1
   22    34	 1
   22    32	 1
   22    76	 1
   22    28	 1
   22    75	 1
   22    25	 1
   22    73	 1
   23    31	 1
   23    50	 1
   23    27	 1
   23    26	 1
   23    30	 1
   24    71	 1
   24    72	 1
   24    28	 1
   24    75	 1
   24    74	 1
   25    29	 1
   25    30	 1
   26    73	 1
   26    28	 1
   26    74	 1
   27    73	 1
   27    75	 1
   29    71	 1
   29    72	 1
   29    73	 1
   29    74	 1
   30    74	 1
   30    75	 1
   31    71	 1
   31    72	 1
   31    40	 1
   31    82	 1
   31    83	 1
   31    36	 1
   31    37	 1
   31    38	 1
   32    50	 1
   32    41	 1
   32    35	 1
   32    77	 1
   33    34	 1
   33    76	 1
   34    50	 1
   34    39	 1
   34    78	 1
   34    79	 1
   34    43	 1
   34    42	 1
   35    76	 1
   35    40	 1
   35    82	 1
   35    83	 1
   35    80	 1
   35    81	 1
   36    41	 1
   36    77	 1
   36    43	 1
   36    42	 1
   37    41	 1
   37    77	 1
   37    39	 1
   37    78	 1
   37    79	 1
   38    41	 1
   38    77	 1
   38    39	 1
   38    78	 1
   38    79	 1
   39    44	 1
   39    84	 1
   39    85	 1
   39    82	 1
   39    83	 1
   40    77	 1
   40    78	 1
   40    79	 1
   40    49	 1
   40    45	 1
   41    76	 1
   41    80	 1
   41    81	 1
   41    44	 1
   41    84	 1
   41    85	 1
   42    80	 1
   42    81	 1
   42    44	 1
   42    84	 1
   42    85	 1
   42    82	 1
   42    83	 1
   43    80	 1
   43    81	 1
   43    82	 1
   43    83	 1
   43    48	 1
   43    90	 1
   43    46	 1
   43    86	 1
   44    47	 1
   44    87	 1
   44    89	 1
   45    84	 1
   45    85	 1
   45    48	 1
   45    90	 1
   45    88	 1
   46    49	 1
   46    89	 1
   47    86	 1
   47    90	 1
   48    87	 1
   49    84	 1
   49    85	 1
   49    86	 1
   49    88	 1
   50    76	 1
   50    71	 1
   50    72	 1
   57    59	 1
   57    60	 1
   58    59	 1
   58    60	 1
   59    61	 1
   59    62	 1
   59    63	 1
   60    61	 1
   60    62	 1
   60    63	 1
   64    66	 1
   64    67	 1
   65    66	 1
   65    67	 1
   66    68	 1
   66    69	 1
   66    70	 1
   67    68	 1
   67    69	 1
   67    70	 1
   76    77	 1
   77    82	 1
   77    83	 1
   78    80	 1
   78    81	 1
   79    80	 1
   79    81	 1
   86    87	 1
   87    88	 1
   88    89	 1
   89    90	 1

[ angles ]
;	ai	  aj	ak funct			c0			  c1			c2			  c3
    2     1    31	5 ;      NG2S1      CG311      CG311
    2     1    22	5 ;      NG2S1      CG311      CG321
    2     1    50	5 ;      NG2S1      CG311       HGA1
   31     1    22	5 ;      CG311      CG311      CG321
   31     1    50	5 ;      CG311      CG311       HGA1
   22     1    50	5 ;      CG321      CG311       HGA1
    3     2     5	5 ;      CG2O1      NG2S1       HGP1
    3     2     1	5 ;      CG2O1      NG2S1      CG311
    5     2     1	5 ;       HGP1      NG2S1      CG311
    6     3     4	5 ;     CG2R61      CG2O1      OG2D1
    6     3     2	5 ;     CG2R61      CG2O1      NG2S1
    4     3     2	5 ;      OG2D1      CG2O1      NG2S1
   11     6     7	5 ;     CG2R61     CG2R61     CG2R61
   11     6     3	5 ;     CG2R61     CG2R61      CG2O1
    7     6     3	5 ;     CG2R61     CG2R61      CG2O1
    8     7     6	5 ;     CG2R61     CG2R61     CG2R61
    8     7    51	5 ;     CG2R61     CG2R61      HGR61
    6     7    51	5 ;     CG2R61     CG2R61      HGR61
    9     8    13	5 ;     CG2R61     CG2R61      CG2O1
    9     8     7	5 ;     CG2R61     CG2R61     CG2R61
   13     8     7	5 ;      CG2O1     CG2R61     CG2R61
   10     9     8	5 ;     CG2R61     CG2R61     CG2R61
   10     9    52	5 ;     CG2R61     CG2R61      HGR61
    8     9    52	5 ;     CG2R61     CG2R61      HGR61
   12    10     9	5 ;      CG331     CG2R61     CG2R61
   12    10    11	5 ;      CG331     CG2R61     CG2R61
    9    10    11	5 ;     CG2R61     CG2R61     CG2R61
   10    11     6	5 ;     CG2R61     CG2R61     CG2R61
   10    11    53	5 ;     CG2R61     CG2R61      HGR61
    6    11    53	5 ;     CG2R61     CG2R61      HGR61
   10    12    54	5 ;     CG2R61      CG331       HGA3
   10    12    55	5 ;     CG2R61      CG331       HGA3
   10    12    56	5 ;     CG2R61      CG331       HGA3
   54    12    55	5 ;       HGA3      CG331       HGA3
   54    12    56	5 ;       HGA3      CG331       HGA3
   55    12    56	5 ;       HGA3      CG331       HGA3
    8    13    14	5 ;     CG2R61      CG2O1      OG2D1
    8    13    15	5 ;     CG2R61      CG2O1      NG2S0
   14    13    15	5 ;      OG2D1      CG2O1      NG2S0
   13    15    16	5 ;      CG2O1      NG2S0      CG321
   13    15    19	5 ;      CG2O1      NG2S0      CG321
   16    15    19	5 ;      CG321      NG2S0      CG321
   17    16    15	5 ;      CG321      CG321      NG2S0
   17    16    57	5 ;      CG321      CG321       HGA2
   17    16    58	5 ;      CG321      CG321       HGA2
   15    16    57	5 ;      NG2S0      CG321       HGA2
   15    16    58	5 ;      NG2S0      CG321       HGA2
   57    16    58	5 ;       HGA2      CG321       HGA2
   18    17    16	5 ;      CG331      CG321      CG321
   18    17    59	5 ;      CG331      CG321       HGA2
   18    17    60	5 ;      CG331      CG321       HGA2
   16    17    59	5 ;      CG321      CG321       HGA2
   16    17    60	5 ;      CG321      CG321       HGA2
   59    17    60	5 ;       HGA2      CG321       HGA2
   17    18    61	5 ;      CG321      CG331       HGA3
   17    18    62	5 ;      CG321      CG331       HGA3
   17    18    63	5 ;      CG321      CG331       HGA3
   61    18    62	5 ;       HGA3      CG331       HGA3
   61    18    63	5 ;       HGA3      CG331       HGA3
   62    18    63	5 ;       HGA3      CG331       HGA3
   20    19    15	5 ;      CG321      CG321      NG2S0
   20    19    64	5 ;      CG321      CG321       HGA2
   20    19    65	5 ;      CG321      CG321       HGA2
   15    19    64	5 ;      NG2S0      CG321       HGA2
   15    19    65	5 ;      NG2S0      CG321       HGA2
   64    19    65	5 ;       HGA2      CG321       HGA2
   21    20    19	5 ;      CG331      CG321      CG321
   21    20    66	5 ;      CG331      CG321       HGA2
   21    20    67	5 ;      CG331      CG321       HGA2
   19    20    66	5 ;      CG321      CG321       HGA2
   19    20    67	5 ;      CG321      CG321       HGA2
   66    20    67	5 ;       HGA2      CG321       HGA2
   20    21    68	5 ;      CG321      CG331       HGA3
   20    21    69	5 ;      CG321      CG331       HGA3
   20    21    70	5 ;      CG321      CG331       HGA3
   68    21    69	5 ;       HGA3      CG331       HGA3
   68    21    70	5 ;       HGA3      CG331       HGA3
   69    21    70	5 ;       HGA3      CG331       HGA3
    1    22    23	5 ;      CG311      CG321     CG2R61
    1    22    71	5 ;      CG311      CG321       HGA2
    1    22    72	5 ;      CG311      CG321       HGA2
   23    22    71	5 ;     CG2R61      CG321       HGA2
   23    22    72	5 ;     CG2R61      CG321       HGA2
   71    22    72	5 ;       HGA2      CG321       HGA2
   22    23    29	5 ;      CG321     CG2R61     CG2R61
   22    23    24	5 ;      CG321     CG2R61     CG2R61
   29    23    24	5 ;     CG2R61     CG2R61     CG2R61
   23    24    25	5 ;     CG2R61     CG2R61     CG2R66
   23    24    73	5 ;     CG2R61     CG2R61      HGR62
   25    24    73	5 ;     CG2R66     CG2R61      HGR62
   24    25    27	5 ;     CG2R61     CG2R66     CG2R61
   24    25    26	5 ;     CG2R61     CG2R66       FGR1
   27    25    26	5 ;     CG2R61     CG2R66       FGR1
   28    27    25	5 ;     CG2R66     CG2R61     CG2R66
   28    27    74	5 ;     CG2R66     CG2R61      HGR62
   25    27    74	5 ;     CG2R66     CG2R61      HGR62
   29    28    30	5 ;     CG2R61     CG2R66       FGR1
   29    28    27	5 ;     CG2R61     CG2R66     CG2R61
   30    28    27	5 ;       FGR1     CG2R66     CG2R61
   23    29    28	5 ;     CG2R61     CG2R61     CG2R66
   23    29    75	5 ;     CG2R61     CG2R61      HGR62
   28    29    75	5 ;     CG2R66     CG2R61      HGR62
   34    31    32	5 ;      CG314      CG311      OG311
   34    31     1	5 ;      CG314      CG311      CG311
   34    31    76	5 ;      CG314      CG311       HGA1
   32    31     1	5 ;      OG311      CG311      CG311
   32    31    76	5 ;      OG311      CG311       HGA1
    1    31    76	5 ;      CG311      CG311       HGA1
   33    32    31	5 ;       HGP1      OG311      CG311
   41    34    35	5 ;      CG324      CG314      NG3P2
   41    34    31	5 ;      CG324      CG314      CG311
   41    34    77	5 ;      CG324      CG314       HGA1
   35    34    31	5 ;      NG3P2      CG314      CG311
   35    34    77	5 ;      NG3P2      CG314       HGA1
   31    34    77	5 ;      CG311      CG314       HGA1
   36    35    34	5 ;      CG324      NG3P2      CG314
   36    35    37	5 ;      CG324      NG3P2       HGP2
   36    35    38	5 ;      CG324      NG3P2       HGP2
   34    35    37	5 ;      CG314      NG3P2       HGP2
   34    35    38	5 ;      CG314      NG3P2       HGP2
   37    35    38	5 ;       HGP2      NG3P2       HGP2
   39    36    35	5 ;      CG324      CG324      NG3P2
   39    36    78	5 ;      CG324      CG324       HGA2
   39    36    79	5 ;      CG324      CG324       HGA2
   35    36    78	5 ;      NG3P2      CG324       HGA2
   35    36    79	5 ;      NG3P2      CG324       HGA2
   78    36    79	5 ;       HGA2      CG324       HGA2
   40    39    36	5 ;      NG3P1      CG324      CG324
   40    39    80	5 ;      NG3P1      CG324       HGA2
   40    39    81	5 ;      NG3P1      CG324       HGA2
   36    39    80	5 ;      CG324      CG324       HGA2
   36    39    81	5 ;      CG324      CG324       HGA2
   80    39    81	5 ;       HGA2      CG324       HGA2
   43    40    39	5 ;      CG324      NG3P1      CG324
   43    40    42	5 ;      CG324      NG3P1       HGP2
   43    40    41	5 ;      CG324      NG3P1      CG324
   39    40    42	5 ;      CG324      NG3P1       HGP2
   39    40    41	5 ;      CG324      NG3P1      CG324
   42    40    41	5 ;       HGP2      NG3P1      CG324
   40    41    34	5 ;      NG3P1      CG324      CG314
   40    41    82	5 ;      NG3P1      CG324       HGA2
   40    41    83	5 ;      NG3P1      CG324       HGA2
   34    41    82	5 ;      CG314      CG324       HGA2
   34    41    83	5 ;      CG314      CG324       HGA2
   82    41    83	5 ;       HGA2      CG324       HGA2
   44    43    40	5 ;     CG2R61      CG324      NG3P1
   44    43    84	5 ;     CG2R61      CG324       HGA2
   44    43    85	5 ;     CG2R61      CG324       HGA2
   40    43    84	5 ;      NG3P1      CG324       HGA2
   40    43    85	5 ;      NG3P1      CG324       HGA2
   84    43    85	5 ;       HGA2      CG324       HGA2
   49    44    43	5 ;     CG2R61     CG2R61      CG324
   49    44    45	5 ;     CG2R61     CG2R61     CG2R61
   43    44    45	5 ;      CG324     CG2R61     CG2R61
   44    45    46	5 ;     CG2R61     CG2R61     CG2R61
   44    45    86	5 ;     CG2R61     CG2R61      HGR61
   46    45    86	5 ;     CG2R61     CG2R61      HGR61
   47    46    45	5 ;     CG2R61     CG2R61     CG2R61
   47    46    87	5 ;     CG2R61     CG2R61      HGR61
   45    46    87	5 ;     CG2R61     CG2R61      HGR61
   48    47    46	5 ;     CG2R61     CG2R61     CG2R61
   48    47    88	5 ;     CG2R61     CG2R61      HGR61
   46    47    88	5 ;     CG2R61     CG2R61      HGR61
   49    48    47	5 ;     CG2R61     CG2R61     CG2R61
   49    48    89	5 ;     CG2R61     CG2R61      HGR61
   47    48    89	5 ;     CG2R61     CG2R61      HGR61
   48    49    44	5 ;     CG2R61     CG2R61     CG2R61
   48    49    90	5 ;     CG2R61     CG2R61      HGR61
   44    49    90	5 ;     CG2R61     CG2R61      HGR61

[ dihedrals ]
;	ai	  aj	ak	  al funct			  c0			c1			  c2			c3			  c4			c5
   31     1     2     3	 9 ;      CG311      CG311      NG2S1      CG2O1
   31     1     2     5	 9 ;      CG311      CG311      NG2S1       HGP1
   22     1     2     3	 9 ;      CG321      CG311      NG2S1      CG2O1
   22     1     2     5	 9 ;      CG321      CG311      NG2S1       HGP1
   50     1     2     3	 9 ;       HGA1      CG311      NG2S1      CG2O1
   50     1     2     5	 9 ;       HGA1      CG311      NG2S1       HGP1
    2     1    31    34	 9 ;      NG2S1      CG311      CG311      CG314
    2     1    31    32	 9 ;      NG2S1      CG311      CG311      OG311
    2     1    31    76	 9 ;      NG2S1      CG311      CG311       HGA1
   22     1    31    34	 9 ;      CG321      CG311      CG311      CG314
   22     1    31    32	 9 ;      CG321      CG311      CG311      OG311
   22     1    31    76	 9 ;      CG321      CG311      CG311       HGA1
   50     1    31    34	 9 ;       HGA1      CG311      CG311      CG314
   50     1    31    32	 9 ;       HGA1      CG311      CG311      OG311
   50     1    31    76	 9 ;       HGA1      CG311      CG311       HGA1
    2     1    22    23	 9 ;      NG2S1      CG311      CG321     CG2R61
    2     1    22    71	 9 ;      NG2S1      CG311      CG321       HGA2
    2     1    22    72	 9 ;      NG2S1      CG311      CG321       HGA2
   31     1    22    23	 9 ;      CG311      CG311      CG321     CG2R61
   31     1    22    71	 9 ;      CG311      CG311      CG321       HGA2
   31     1    22    72	 9 ;      CG311      CG311      CG321       HGA2
   50     1    22    23	 9 ;       HGA1      CG311      CG321     CG2R61
   50     1    22    71	 9 ;       HGA1      CG311      CG321       HGA2
   50     1    22    72	 9 ;       HGA1      CG311      CG321       HGA2
    5     2     3     6	 9 ;       HGP1      NG2S1      CG2O1     CG2R61
    5     2     3     4	 9 ;       HGP1      NG2S1      CG2O1      OG2D1
    1     2     3     6	 9 ;      CG311      NG2S1      CG2O1     CG2R61
    1     2     3     4	 9 ;      CG311      NG2S1      CG2O1      OG2D1
    4     3     6    11	 9 ;      OG2D1      CG2O1     CG2R61     CG2R61
    4     3     6     7	 9 ;      OG2D1      CG2O1     CG2R61     CG2R61
    2     3     6    11	 9 ;      NG2S1      CG2O1     CG2R61     CG2R61
    2     3     6     7	 9 ;      NG2S1      CG2O1     CG2R61     CG2R61
    7     6    11    10	 9 ;     CG2R61     CG2R61     CG2R61     CG2R61
    7     6    11    53	 9 ;     CG2R61     CG2R61     CG2R61      HGR61
    3     6    11    10	 9 ;      CG2O1     CG2R61     CG2R61     CG2R61
    3     6    11    53	 9 ;      CG2O1     CG2R61     CG2R61      HGR61
   11     6     7     8	 9 ;     CG2R61     CG2R61     CG2R61     CG2R61
   11     6     7    51	 9 ;     CG2R61     CG2R61     CG2R61      HGR61
    3     6     7     8	 9 ;      CG2O1     CG2R61     CG2R61     CG2R61
    3     6     7    51	 9 ;      CG2O1     CG2R61     CG2R61      HGR61
    6     7     8     9	 9 ;     CG2R61     CG2R61     CG2R61     CG2R61
    6     7     8    13	 9 ;     CG2R61     CG2R61     CG2R61      CG2O1
   51     7     8     9	 9 ;      HGR61     CG2R61     CG2R61     CG2R61
   51     7     8    13	 9 ;      HGR61     CG2R61     CG2R61      CG2O1
   13     8     9    10	 9 ;      CG2O1     CG2R61     CG2R61     CG2R61
   13     8     9    52	 9 ;      CG2O1     CG2R61     CG2R61      HGR61
    7     8     9    10	 9 ;     CG2R61     CG2R61     CG2R61     CG2R61
    7     8     9    52	 9 ;     CG2R61     CG2R61     CG2R61      HGR61
    9     8    13    14	 9 ;     CG2R61     CG2R61      CG2O1      OG2D1
    9     8    13    15	 9 ;     CG2R61     CG2R61      CG2O1      NG2S0
    7     8    13    14	 9 ;     CG2R61     CG2R61      CG2O1      OG2D1
    7     8    13    15	 9 ;     CG2R61     CG2R61      CG2O1      NG2S0
    8     9    10    12	 9 ;     CG2R61     CG2R61     CG2R61      CG331
    8     9    10    11	 9 ;     CG2R61     CG2R61     CG2R61     CG2R61
   52     9    10    12	 9 ;      HGR61     CG2R61     CG2R61      CG331
   52     9    10    11	 9 ;      HGR61     CG2R61     CG2R61     CG2R61
    9    10    12    54	 9 ;     CG2R61     CG2R61      CG331       HGA3
    9    10    12    55	 9 ;     CG2R61     CG2R61      CG331       HGA3
    9    10    12    56	 9 ;     CG2R61     CG2R61      CG331       HGA3
   11    10    12    54	 9 ;     CG2R61     CG2R61      CG331       HGA3
   11    10    12    55	 9 ;     CG2R61     CG2R61      CG331       HGA3
   11    10    12    56	 9 ;     CG2R61     CG2R61      CG331       HGA3
   12    10    11     6	 9 ;      CG331     CG2R61     CG2R61     CG2R61
   12    10    11    53	 9 ;      CG331     CG2R61     CG2R61      HGR61
    9    10    11     6	 9 ;     CG2R61     CG2R61     CG2R61     CG2R61
    9    10    11    53	 9 ;     CG2R61     CG2R61     CG2R61      HGR61
    8    13    15    16	 9 ;     CG2R61      CG2O1      NG2S0      CG321
    8    13    15    19	 9 ;     CG2R61      CG2O1      NG2S0      CG321
   14    13    15    16	 9 ;      OG2D1      CG2O1      NG2S0      CG321
   14    13    15    19	 9 ;      OG2D1      CG2O1      NG2S0      CG321
   13    15    16    17	 9 ;      CG2O1      NG2S0      CG321      CG321
   13    15    16    57	 9 ;      CG2O1      NG2S0      CG321       HGA2
   13    15    16    58	 9 ;      CG2O1      NG2S0      CG321       HGA2
   19    15    16    17	 9 ;      CG321      NG2S0      CG321      CG321
   19    15    16    57	 9 ;      CG321      NG2S0      CG321       HGA2
   19    15    16    58	 9 ;      CG321      NG2S0      CG321       HGA2
   13    15    19    20	 9 ;      CG2O1      NG2S0      CG321      CG321
   13    15    19    64	 9 ;      CG2O1      NG2S0      CG321       HGA2
   13    15    19    65	 9 ;      CG2O1      NG2S0      CG321       HGA2
   16    15    19    20	 9 ;      CG321      NG2S0      CG321      CG321
   16    15    19    64	 9 ;      CG321      NG2S0      CG321       HGA2
   16    15    19    65	 9 ;      CG321      NG2S0      CG321       HGA2
   15    16    17    18	 9 ;      NG2S0      CG321      CG321      CG331
   15    16    17    59	 9 ;      NG2S0      CG321      CG321       HGA2
   15    16    17    60	 9 ;      NG2S0      CG321      CG321       HGA2
   57    16    17    18	 9 ;       HGA2      CG321      CG321      CG331
   57    16    17    59	 9 ;       HGA2      CG321      CG321       HGA2
   57    16    17    60	 9 ;       HGA2      CG321      CG321       HGA2
   58    16    17    18	 9 ;       HGA2      CG321      CG321      CG331
   58    16    17    59	 9 ;       HGA2      CG321      CG321       HGA2
   58    16    17    60	 9 ;       HGA2      CG321      CG321       HGA2
   16    17    18    61	 9 ;      CG321      CG321      CG331       HGA3
   16    17    18    62	 9 ;      CG321      CG321      CG331       HGA3
   16    17    18    63	 9 ;      CG321      CG321      CG331       HGA3
   59    17    18    61	 9 ;       HGA2      CG321      CG331       HGA3
   59    17    18    62	 9 ;       HGA2      CG321      CG331       HGA3
   59    17    18    63	 9 ;       HGA2      CG321      CG331       HGA3
   60    17    18    61	 9 ;       HGA2      CG321      CG331       HGA3
   60    17    18    62	 9 ;       HGA2      CG321      CG331       HGA3
   60    17    18    63	 9 ;       HGA2      CG321      CG331       HGA3
   15    19    20    21	 9 ;      NG2S0      CG321      CG321      CG331
   15    19    20    66	 9 ;      NG2S0      CG321      CG321       HGA2
   15    19    20    67	 9 ;      NG2S0      CG321      CG321       HGA2
   64    19    20    21	 9 ;       HGA2      CG321      CG321      CG331
   64    19    20    66	 9 ;       HGA2      CG321      CG321       HGA2
   64    19    20    67	 9 ;       HGA2      CG321      CG321       HGA2
   65    19    20    21	 9 ;       HGA2      CG321      CG321      CG331
   65    19    20    66	 9 ;       HGA2      CG321      CG321       HGA2
   65    19    20    67	 9 ;       HGA2      CG321      CG321       HGA2
   19    20    21    68	 9 ;      CG321      CG321      CG331       HGA3
   19    20    21    69	 9 ;      CG321      CG321      CG331       HGA3
   19    20    21    70	 9 ;      CG321      CG321      CG331       HGA3
   66    20    21    68	 9 ;       HGA2      CG321      CG331       HGA3
   66    20    21    69	 9 ;       HGA2      CG321      CG331       HGA3
   66    20    21    70	 9 ;       HGA2      CG321      CG331       HGA3
   67    20    21    68	 9 ;       HGA2      CG321      CG331       HGA3
   67    20    21    69	 9 ;       HGA2      CG321      CG331       HGA3
   67    20    21    70	 9 ;       HGA2      CG321      CG331       HGA3
    1    22    23    29	 9 ;      CG311      CG321     CG2R61     CG2R61
    1    22    23    24	 9 ;      CG311      CG321     CG2R61     CG2R61
   71    22    23    29	 9 ;       HGA2      CG321     CG2R61     CG2R61
   71    22    23    24	 9 ;       HGA2      CG321     CG2R61     CG2R61
   72    22    23    29	 9 ;       HGA2      CG321     CG2R61     CG2R61
   72    22    23    24	 9 ;       HGA2      CG321     CG2R61     CG2R61
   22    23    29    28	 9 ;      CG321     CG2R61     CG2R61     CG2R66
   22    23    29    75	 9 ;      CG321     CG2R61     CG2R61      HGR62
   24    23    29    28	 9 ;     CG2R61     CG2R61     CG2R61     CG2R66
   24    23    29    75	 9 ;     CG2R61     CG2R61     CG2R61      HGR62
   22    23    24    25	 9 ;      CG321     CG2R61     CG2R61     CG2R66
   22    23    24    73	 9 ;      CG321     CG2R61     CG2R61      HGR62
   29    23    24    25	 9 ;     CG2R61     CG2R61     CG2R61     CG2R66
   29    23    24    73	 9 ;     CG2R61     CG2R61     CG2R61      HGR62
   23    24    25    27	 9 ;     CG2R61     CG2R61     CG2R66     CG2R61
   23    24    25    26	 9 ;     CG2R61     CG2R61     CG2R66       FGR1
   73    24    25    27	 9 ;      HGR62     CG2R61     CG2R66     CG2R61
   73    24    25    26	 9 ;      HGR62     CG2R61     CG2R66       FGR1
   24    25    27    28	 9 ;     CG2R61     CG2R66     CG2R61     CG2R66
   24    25    27    74	 9 ;     CG2R61     CG2R66     CG2R61      HGR62
   26    25    27    28	 9 ;       FGR1     CG2R66     CG2R61     CG2R66
   26    25    27    74	 9 ;       FGR1     CG2R66     CG2R61      HGR62
   25    27    28    29	 9 ;     CG2R66     CG2R61     CG2R66     CG2R61
   25    27    28    30	 9 ;     CG2R66     CG2R61     CG2R66       FGR1
   74    27    28    29	 9 ;      HGR62     CG2R61     CG2R66     CG2R61
   74    27    28    30	 9 ;      HGR62     CG2R61     CG2R66       FGR1
   30    28    29    23	 9 ;       FGR1     CG2R66     CG2R61     CG2R61
   30    28    29    75	 9 ;       FGR1     CG2R66     CG2R61      HGR62
   27    28    29    23	 9 ;     CG2R61     CG2R66     CG2R61     CG2R61
   27    28    29    75	 9 ;     CG2R61     CG2R66     CG2R61      HGR62
   32    31    34    41	 9 ;      OG311      CG311      CG314      CG324
   32    31    34    35	 9 ;      OG311      CG311      CG314      NG3P2
   32    31    34    77	 9 ;      OG311      CG311      CG314       HGA1
    1    31    34    41	 9 ;      CG311      CG311      CG314      CG324
    1    31    34    35	 9 ;      CG311      CG311      CG314      NG3P2
    1    31    34    77	 9 ;      CG311      CG311      CG314       HGA1
   76    31    34    41	 9 ;       HGA1      CG311      CG314      CG324
   76    31    34    35	 9 ;       HGA1      CG311      CG314      NG3P2
   76    31    34    77	 9 ;       HGA1      CG311      CG314       HGA1
   34    31    32    33	 9 ;      CG314      CG311      OG311       HGP1
    1    31    32    33	 9 ;      CG311      CG311      OG311       HGP1
   76    31    32    33	 9 ;       HGA1      CG311      OG311       HGP1
   35    34    41    40	 9 ;      NG3P2      CG314      CG324      NG3P1
   35    34    41    82	 9 ;      NG3P2      CG314      CG324       HGA2
   35    34    41    83	 9 ;      NG3P2      CG314      CG324       HGA2
   31    34    41    40	 9 ;      CG311      CG314      CG324      NG3P1
   31    34    41    82	 9 ;      CG311      CG314      CG324       HGA2
   31    34    41    83	 9 ;      CG311      CG314      CG324       HGA2
   77    34    41    40	 9 ;       HGA1      CG314      CG324      NG3P1
   77    34    41    82	 9 ;       HGA1      CG314      CG324       HGA2
   77    34    41    83	 9 ;       HGA1      CG314      CG324       HGA2
   41    34    35    36	 9 ;      CG324      CG314      NG3P2      CG324
   41    34    35    37	 9 ;      CG324      CG314      NG3P2       HGP2
   41    34    35    38	 9 ;      CG324      CG314      NG3P2       HGP2
   31    34    35    36	 9 ;      CG311      CG314      NG3P2      CG324
   31    34    35    37	 9 ;      CG311      CG314      NG3P2       HGP2
   31    34    35    38	 9 ;      CG311      CG314      NG3P2       HGP2
   77    34    35    36	 9 ;       HGA1      CG314      NG3P2      CG324
   77    34    35    37	 9 ;       HGA1      CG314      NG3P2       HGP2
   77    34    35    38	 9 ;       HGA1      CG314      NG3P2       HGP2
   34    35    36    39	 9 ;      CG314      NG3P2      CG324      CG324
   34    35    36    78	 9 ;      CG314      NG3P2      CG324       HGA2
   34    35    36    79	 9 ;      CG314      NG3P2      CG324       HGA2
   37    35    36    39	 9 ;       HGP2      NG3P2      CG324      CG324
   37    35    36    78	 9 ;       HGP2      NG3P2      CG324       HGA2
   37    35    36    79	 9 ;       HGP2      NG3P2      CG324       HGA2
   38    35    36    39	 9 ;       HGP2      NG3P2      CG324      CG324
   38    35    36    78	 9 ;       HGP2      NG3P2      CG324       HGA2
   38    35    36    79	 9 ;       HGP2      NG3P2      CG324       HGA2
   35    36    39    40	 9 ;      NG3P2      CG324      CG324      NG3P1
   35    36    39    80	 9 ;      NG3P2      CG324      CG324       HGA2
   35    36    39    81	 9 ;      NG3P2      CG324      CG324       HGA2
   78    36    39    40	 9 ;       HGA2      CG324      CG324      NG3P1
   78    36    39    80	 9 ;       HGA2      CG324      CG324       HGA2
   78    36    39    81	 9 ;       HGA2      CG324      CG324       HGA2
   79    36    39    40	 9 ;       HGA2      CG324      CG324      NG3P1
   79    36    39    80	 9 ;       HGA2      CG324      CG324       HGA2
   79    36    39    81	 9 ;       HGA2      CG324      CG324       HGA2
   36    39    40    43	 9 ;      CG324      CG324      NG3P1      CG324
   36    39    40    42	 9 ;      CG324      CG324      NG3P1       HGP2
   36    39    40    41	 9 ;      CG324      CG324      NG3P1      CG324
   80    39    40    43	 9 ;       HGA2      CG324      NG3P1      CG324
   80    39    40    42	 9 ;       HGA2      CG324      NG3P1       HGP2
   80    39    40    41	 9 ;       HGA2      CG324      NG3P1      CG324
   81    39    40    43	 9 ;       HGA2      CG324      NG3P1      CG324
   81    39    40    42	 9 ;       HGA2      CG324      NG3P1       HGP2
   81    39    40    41	 9 ;       HGA2      CG324      NG3P1      CG324
   39    40    43    44	 9 ;      CG324      NG3P1      CG324     CG2R61
   39    40    43    84	 9 ;      CG324      NG3P1      CG324       HGA2
   39    40    43    85	 9 ;      CG324      NG3P1      CG324       HGA2
   42    40    43    44	 9 ;       HGP2      NG3P1      CG324     CG2R61
   42    40    43    84	 9 ;       HGP2      NG3P1      CG324       HGA2
   42    40    43    85	 9 ;       HGP2      NG3P1      CG324       HGA2
   41    40    43    44	 9 ;      CG324      NG3P1      CG324     CG2R61
   41    40    43    84	 9 ;      CG324      NG3P1      CG324       HGA2
   41    40    43    85	 9 ;      CG324      NG3P1      CG324       HGA2
   43    40    41    34	 9 ;      CG324      NG3P1      CG324      CG314
   43    40    41    82	 9 ;      CG324      NG3P1      CG324       HGA2
   43    40    41    83	 9 ;      CG324      NG3P1      CG324       HGA2
   39    40    41    34	 9 ;      CG324      NG3P1      CG324      CG314
   39    40    41    82	 9 ;      CG324      NG3P1      CG324       HGA2
   39    40    41    83	 9 ;      CG324      NG3P1      CG324       HGA2
   42    40    41    34	 9 ;       HGP2      NG3P1      CG324      CG314
   42    40    41    82	 9 ;       HGP2      NG3P1      CG324       HGA2
   42    40    41    83	 9 ;       HGP2      NG3P1      CG324       HGA2
   40    43    44    49	 9 ;      NG3P1      CG324     CG2R61     CG2R61
   40    43    44    45	 9 ;      NG3P1      CG324     CG2R61     CG2R61
   84    43    44    49	 9 ;       HGA2      CG324     CG2R61     CG2R61
   84    43    44    45	 9 ;       HGA2      CG324     CG2R61     CG2R61
   85    43    44    49	 9 ;       HGA2      CG324     CG2R61     CG2R61
   85    43    44    45	 9 ;       HGA2      CG324     CG2R61     CG2R61
   43    44    49    48	 9 ;      CG324     CG2R61     CG2R61     CG2R61
   43    44    49    90	 9 ;      CG324     CG2R61     CG2R61      HGR61
   45    44    49    48	 9 ;     CG2R61     CG2R61     CG2R61     CG2R61
   45    44    49    90	 9 ;     CG2R61     CG2R61     CG2R61      HGR61
   49    44    45    46	 9 ;     CG2R61     CG2R61     CG2R61     CG2R61
   49    44    45    86	 9 ;     CG2R61     CG2R61     CG2R61      HGR61
   43    44    45    46	 9 ;      CG324     CG2R61     CG2R61     CG2R61
   43    44    45    86	 9 ;      CG324     CG2R61     CG2R61      HGR61
   44    45    46    47	 9 ;     CG2R61     CG2R61     CG2R61     CG2R61
   44    45    46    87	 9 ;     CG2R61     CG2R61     CG2R61      HGR61
   86    45    46    47	 9 ;      HGR61     CG2R61     CG2R61     CG2R61
   86    45    46    87	 9 ;      HGR61     CG2R61     CG2R61      HGR61
   45    46    47    48	 9 ;     CG2R61     CG2R61     CG2R61     CG2R61
   45    46    47    88	 9 ;     CG2R61     CG2R61     CG2R61      HGR61
   87    46    47    48	 9 ;      HGR61     CG2R61     CG2R61     CG2R61
   87    46    47    88	 9 ;      HGR61     CG2R61     CG2R61      HGR61
   46    47    48    49	 9 ;     CG2R61     CG2R61     CG2R61     CG2R61
   46    47    48    89	 9 ;     CG2R61     CG2R61     CG2R61      HGR61
   88    47    48    49	 9 ;      HGR61     CG2R61     CG2R61     CG2R61
   88    47    48    89	 9 ;      HGR61     CG2R61     CG2R61      HGR61
   47    48    49    44	 9 ;     CG2R61     CG2R61     CG2R61     CG2R61
   47    48    49    90	 9 ;     CG2R61     CG2R61     CG2R61      HGR61
   89    48    49    44	 9 ;      HGR61     CG2R61     CG2R61     CG2R61
   89    48    49    90	 9 ;      HGR61     CG2R61     CG2R61      HGR61

[ dihedrals ]
;	ai	  aj	ak	  al funct			  c0			c1			  c2			c3
    3     6     2     4	 2
   13     8    15    14	 2

