Gallium Rubidium Oxygen Manganese Argon Carbon Silicon
   86
    1LIG     O1    1  -1.467   0.615  -1.578
    1LIG     C1    2  -1.455   0.535  -1.670
    1LIG     N1    3  -1.480   0.559  -1.804
    1LIG     C2    4  -1.433   0.452  -1.875
    1LIG     N2    5  -1.366   0.366  -1.793
    1LIG     C3    6  -1.418   0.385  -1.657
    1LIG     H1    7  -1.357   0.272  -1.829
    1LIG     C4    8  -1.579   0.661  -1.835
    1LIG     C5    9  -1.725   0.632  -1.808
    1LIG     C6   10  -1.786   0.689  -1.695
    1LIG     C7   11  -1.919   0.662  -1.665
    1LIG     C8   12  -1.995   0.579  -1.748
    1LIG     C9   13  -1.938   0.531  -1.867
    1LIG    C10   14  -1.803   0.557  -1.896
    1LIG    C11   15  -2.136   0.542  -1.707
    1LIG     N3   16  -2.160   0.563  -1.567
    1LIG    C12   17  -2.225   0.484  -1.478
    1LIG     O2   18  -2.236   0.519  -1.361
    1LIG     N4   19  -2.274   0.366  -1.526
    1LIG     H2   20  -2.275   0.350  -1.625
    1LIG     H3   21  -2.127   0.649  -1.525
    1LIG    C13   22  -2.353   0.276  -1.443
    1LIG    C14   23  -2.269   0.166  -1.378
    1LIG    C15   24  -2.225   0.058  -1.478
    1LIG    C16   25  -2.178  -0.068  -1.409
    1LIG     N5   26  -1.454   0.426  -1.998
    1LIG     H4   27  -1.543   0.464  -2.030
    1LIG     HN   28  -1.389   0.374  -2.057
    1LIG    C17   29  -1.318   0.354  -1.545
    1LIG    C18   30  -1.313   0.212  -1.482
    1LIG    C19   31  -1.270   0.210  -1.334
    1LIG    C20   32  -1.238   0.070  -1.283
    1LIG    C21   33  -1.138  -0.003  -1.372
    1LIG    C22   34  -1.193  -0.012  -1.514
    1LIG    C23   35  -1.218   0.128  -1.570
    1LIG    C24   36  -1.544   0.292  -1.649
    1LIG    C25   37  -1.690   0.344  -1.628
    1LIG    C26   38  -1.702   0.387  -1.479
    1LIG    C27   39  -1.843   0.397  -1.422
    1LIG    C28   40  -1.928   0.277  -1.459
    1LIG    C29   41  -1.935   0.263  -1.610
    1LIG    C30   42  -1.798   0.245  -1.674
    1LIG    HC2   43  -1.571   0.683  -1.941
    1LIG    HC3   44  -1.553   0.751  -1.780
    1LIG     HC   45  -1.729   0.755  -1.631
    1LIG    HC1   46  -1.964   0.706  -1.577
    1LIG    HC4   47  -1.998   0.475  -1.936
    1LIG    HC5   48  -1.760   0.519  -1.987
    1LIG    HC6   49  -2.152   0.436  -1.730
    1LIG    HC7   50  -2.206   0.601  -1.765
    1LIG    HC8   51  -2.401   0.334  -1.364
    1LIG    HC9   52  -2.431   0.230  -1.505
    1LIG   HC10   53  -2.181   0.211  -1.334
    1LIG   HC11   54  -2.328   0.119  -1.299
    1LIG   HC12   55  -2.144   0.098  -1.539
    1LIG   HC13   56  -2.309   0.034  -1.544
    1LIG   HC14   57  -2.148  -0.141  -1.485
    1LIG   HC15   58  -2.259  -0.109  -1.349
    1LIG   HC16   59  -2.093  -0.045  -1.345
    1LIG   HC17   60  -1.339   0.424  -1.464
    1LIG   HC18   61  -1.219   0.377  -1.583
    1LIG   HC19   62  -1.413   0.169  -1.489
    1LIG   HC20   63  -1.351   0.252  -1.274
    1LIG   HC21   64  -1.182   0.273  -1.323
    1LIG   HC22   65  -1.195   0.078  -1.183
    1LIG   HC23   66  -1.330   0.012  -1.277
    1LIG   HC24   67  -1.122  -0.104  -1.334
    1LIG   HC25   68  -1.044   0.051  -1.373
    1LIG   HC26   69  -1.121  -0.064  -1.577
    1LIG   HC27   70  -1.287  -0.067  -1.513
    1LIG   HC28   71  -1.261   0.118  -1.669
    1LIG   HC29   72  -1.122   0.180  -1.578
    1LIG   HC30   73  -1.546   0.236  -1.743
    1LIG   HC31   74  -1.526   0.219  -1.570
    1LIG   HC32   75  -1.701   0.434  -1.689
    1LIG   HC33   76  -1.655   0.486  -1.469
    1LIG   HC34   77  -1.646   0.317  -1.419
    1LIG   HC35   78  -1.837   0.404  -1.314
    1LIG   HC36   79  -1.891   0.488  -1.461
    1LIG   HC37   80  -2.028   0.290  -1.419
    1LIG   HC38   81  -1.883   0.187  -1.416
    1LIG   HC39   82  -1.996   0.176  -1.634
    1LIG   HC40   83  -1.983   0.352  -1.651
    1LIG   HC41   84  -1.809   0.256  -1.782
    1LIG   HC42   85  -1.763   0.144  -1.653
    1LIG    H49   86  -1.341   0.506  -1.899
   0.00000   0.00000   0.00000
