; Created by cgenff_charmm2gmx.py

[ moleculetype ]
; Name			   nrexcl
LIG				 3

[ atoms ]
;	 nr		  type	resnr residue  atom   cgnr	   charge		mass  typeB    chargeB		massB
; residue	 1 LIG rtp LIG q	qsum
     1     CG3C50      1    LIG     C1      1      1.599     12.011   ;
     2      NG3P2      1    LIG     N1      2     -0.701     14.007   ;
     3       HGP2      1    LIG     HN      3      0.353      1.008   ;
     4     CG3C53      1    LIG     C2      4      0.784     12.011   ;
     5     NG2R53      1    LIG     N2      5     -0.171     14.007   ;
     6      CG331      1    LIG     C3      6     -0.169     12.011   ;
     7     CG2R53      1    LIG     C4      7     -0.361     12.011   ;
     8      OG2D1      1    LIG      O      8     -0.342     15.999   ;
     9     CG2R61      1    LIG     C5      9     -0.146     12.011   ;
    10     CG2R61      1    LIG     C6     10     -0.131     12.011   ;
    11     CG2R61      1    LIG     C7     11     -0.090     12.011   ;
    12     CG2R61      1    LIG     C8     12      0.044     12.011   ;
    13      CLGR1      1    LIG     CL     13     -0.200     35.453   ;
    14     CG2R61      1    LIG     C9     14     -0.090     12.011   ;
    15     CG2R61      1    LIG    C10     15     -0.131     12.011   ;
    16     CG2R61      1    LIG    C11     16     -0.154     12.011   ;
    17     CG2R61      1    LIG    C12     17     -0.131     12.011   ;
    18     CG2R61      1    LIG    C13     18     -0.105     12.011   ;
    19     CG2R61      1    LIG    C14     19     -0.116     12.011   ;
    20     CG2R61      1    LIG    C15     20     -0.105     12.011   ;
    21     CG2R61      1    LIG    C16     21     -0.131     12.011   ;
    22      NG3P3      1    LIG     N3     22     -0.267     14.007   ;
    23       HGP2      1    LIG     H1     23      0.301      1.008   ;
    24       HGP2      1    LIG     H2     24      0.301      1.008   ;
    25       HGP2      1    LIG    HN2     25      0.353      1.008   ;
    26       HGA1      1    LIG     HC     26      0.073      1.008   ;
    27       HGA3      1    LIG    HC1     27      0.090      1.008   ;
    28       HGA3      1    LIG    HC2     28      0.090      1.008   ;
    29       HGA3      1    LIG    HC3     29      0.090      1.008   ;
    30      HGR61      1    LIG    HC4     30      0.116      1.008   ;
    31      HGR62      1    LIG    HC5     31      0.150      1.008   ;
    32      HGR62      1    LIG    HC6     32      0.150      1.008   ;
    33      HGR61      1    LIG    HC7     33      0.116      1.008   ;
    34      HGR61      1    LIG    HC8     34      0.116      1.008   ;
    35      HGR61      1    LIG    HC9     35      0.116      1.008   ;
    36      HGR61      1    LIG   HC10     36      0.116      1.008   ;
    37      HGR61      1    LIG   HC11     37      0.116      1.008   ;
    38      HGR61      1    LIG   HC12     38      0.116      1.008   ;
    39       HGP2      1    LIG    HN1     39      0.301      1.008   ;
    40        LPH      1    LIG    LP1     40      0.050      0.000   ;

[ bonds ]
;	ai	  aj funct			  c0			c1			  c2			c3
    1     2	 1 ;      CG3C50      NG3P2
    1     9	 1 ;      CG3C50     CG2R61
    1    16	 1 ;      CG3C50     CG2R61
    1     7	 1 ;      CG3C50     CG2R53
    2     3	 1 ;       NG3P2       HGP2
    2     4	 1 ;       NG3P2     CG3C53
    2    25	 1 ;       NG3P2       HGP2
    4     5	 1 ;      CG3C53     NG2R53
    4    22	 1 ;      CG3C53      NG3P3
    4    26	 1 ;      CG3C53       HGA1
    5     7	 1 ;      NG2R53     CG2R53
    5     6	 1 ;      NG2R53      CG331
    6    27	 1 ;       CG331       HGA3
    6    28	 1 ;       CG331       HGA3
    6    29	 1 ;       CG331       HGA3
    7     8	 1 ;      CG2R53      OG2D1
    9    10	 1 ;      CG2R61     CG2R61
    9    15	 1 ;      CG2R61     CG2R61
   10    11	 1 ;      CG2R61     CG2R61
   10    30	 1 ;      CG2R61      HGR61
   11    12	 1 ;      CG2R61     CG2R61
   11    31	 1 ;      CG2R61      HGR62
   12    13	 1 ;      CG2R61      CLGR1
   12    14	 1 ;      CG2R61     CG2R61
   14    15	 1 ;      CG2R61     CG2R61
   14    32	 1 ;      CG2R61      HGR62
   15    33	 1 ;      CG2R61      HGR61
   16    21	 1 ;      CG2R61     CG2R61
   16    17	 1 ;      CG2R61     CG2R61
   17    18	 1 ;      CG2R61     CG2R61
   17    34	 1 ;      CG2R61      HGR61
   18    19	 1 ;      CG2R61     CG2R61
   18    35	 1 ;      CG2R61      HGR61
   19    20	 1 ;      CG2R61     CG2R61
   19    36	 1 ;      CG2R61      HGR61
   20    21	 1 ;      CG2R61     CG2R61
   20    37	 1 ;      CG2R61      HGR61
   21    38	 1 ;      CG2R61      HGR61
   22    24	 1 ;       NG3P3       HGP2
   22    23	 1 ;       NG3P3       HGP2
   22    39	 1 ;       NG3P3       HGP2

[ pairs ]
;	ai	  aj funct			  c0			c1			  c2			c3
    1    22	 1
    1    26	 1
    1     6	 1
    1    11	 1
    1    30	 1
    1    14	 1
    1    33	 1
    1    20	 1
    1    38	 1
    1    18	 1
    1    34	 1
    2    10	 1
    2    15	 1
    2    21	 1
    2    17	 1
    2     8	 1
    2     6	 1
    2    24	 1
    2    23	 1
    2    39	 1
    3     9	 1
    3    16	 1
    3     7	 1
    3     5	 1
    3    22	 1
    3    26	 1
    4     9	 1
    4    16	 1
    4     8	 1
    4    27	 1
    4    28	 1
    4    29	 1
    5     9	 1
    5    16	 1
    5    25	 1
    5    24	 1
    5    23	 1
    5    39	 1
    6    22	 1
    6    26	 1
    6     8	 1
    7    25	 1
    7    10	 1
    7    15	 1
    7    21	 1
    7    17	 1
    7    22	 1
    7    26	 1
    7    27	 1
    7    28	 1
    7    29	 1
    8     9	 1
    8    16	 1
    9    25	 1
    9    21	 1
    9    17	 1
    9    12	 1
    9    31	 1
    9    32	 1
   10    16	 1
   10    14	 1
   10    33	 1
   10    13	 1
   40    10	 1
   11    15	 1
   11    32	 1
   12    30	 1
   12    33	 1
   13    31	 1
   40    31	 1
   13    15	 1
   40    15	 1
   13    32	 1
   40    32	 1
   14    31	 1
   15    16	 1
   15    30	 1
   16    25	 1
   16    19	 1
   16    35	 1
   16    37	 1
   17    20	 1
   17    38	 1
   17    36	 1
   18    21	 1
   18    37	 1
   19    34	 1
   19    38	 1
   20    35	 1
   21    34	 1
   21    36	 1
   22    25	 1
   23    26	 1
   24    26	 1
   25    26	 1
   26    39	 1
   30    31	 1
   32    33	 1
   34    35	 1
   35    36	 1
   36    37	 1
   37    38	 1

[ angles ]
;	ai	  aj	ak funct			c0			  c1			c2			  c3
    2     1     9	5 ;      NG3P2     CG3C50     CG2R61
    2     1    16	5 ;      NG3P2     CG3C50     CG2R61
    2     1     7	5 ;      NG3P2     CG3C50     CG2R53
    9     1    16	5 ;     CG2R61     CG3C50     CG2R61
    9     1     7	5 ;     CG2R61     CG3C50     CG2R53
   16     1     7	5 ;     CG2R61     CG3C50     CG2R53
    1     2     3	5 ;     CG3C50      NG3P2       HGP2
    1     2     4	5 ;     CG3C50      NG3P2     CG3C53
    1     2    25	5 ;     CG3C50      NG3P2       HGP2
    3     2     4	5 ;       HGP2      NG3P2     CG3C53
    3     2    25	5 ;       HGP2      NG3P2       HGP2
    4     2    25	5 ;     CG3C53      NG3P2       HGP2
    2     4     5	5 ;      NG3P2     CG3C53     NG2R53
    2     4    22	5 ;      NG3P2     CG3C53      NG3P3
    2     4    26	5 ;      NG3P2     CG3C53       HGA1
    5     4    22	5 ;     NG2R53     CG3C53      NG3P3
    5     4    26	5 ;     NG2R53     CG3C53       HGA1
   22     4    26	5 ;      NG3P3     CG3C53       HGA1
    4     5     7	5 ;     CG3C53     NG2R53     CG2R53
    4     5     6	5 ;     CG3C53     NG2R53      CG331
    7     5     6	5 ;     CG2R53     NG2R53      CG331
    5     6    27	5 ;     NG2R53      CG331       HGA3
    5     6    28	5 ;     NG2R53      CG331       HGA3
    5     6    29	5 ;     NG2R53      CG331       HGA3
   27     6    28	5 ;       HGA3      CG331       HGA3
   27     6    29	5 ;       HGA3      CG331       HGA3
   28     6    29	5 ;       HGA3      CG331       HGA3
    5     7     1	5 ;     NG2R53     CG2R53     CG3C50
    5     7     8	5 ;     NG2R53     CG2R53      OG2D1
    1     7     8	5 ;     CG3C50     CG2R53      OG2D1
    1     9    10	5 ;     CG3C50     CG2R61     CG2R61
    1     9    15	5 ;     CG3C50     CG2R61     CG2R61
   10     9    15	5 ;     CG2R61     CG2R61     CG2R61
    9    10    11	5 ;     CG2R61     CG2R61     CG2R61
    9    10    30	5 ;     CG2R61     CG2R61      HGR61
   11    10    30	5 ;     CG2R61     CG2R61      HGR61
   10    11    12	5 ;     CG2R61     CG2R61     CG2R61
   10    11    31	5 ;     CG2R61     CG2R61      HGR62
   12    11    31	5 ;     CG2R61     CG2R61      HGR62
   11    12    13	5 ;     CG2R61     CG2R61      CLGR1
   11    12    14	5 ;     CG2R61     CG2R61     CG2R61
   13    12    14	5 ;      CLGR1     CG2R61     CG2R61
   12    14    15	5 ;     CG2R61     CG2R61     CG2R61
   12    14    32	5 ;     CG2R61     CG2R61      HGR62
   15    14    32	5 ;     CG2R61     CG2R61      HGR62
    9    15    14	5 ;     CG2R61     CG2R61     CG2R61
    9    15    33	5 ;     CG2R61     CG2R61      HGR61
   14    15    33	5 ;     CG2R61     CG2R61      HGR61
    1    16    21	5 ;     CG3C50     CG2R61     CG2R61
    1    16    17	5 ;     CG3C50     CG2R61     CG2R61
   21    16    17	5 ;     CG2R61     CG2R61     CG2R61
   16    17    18	5 ;     CG2R61     CG2R61     CG2R61
   16    17    34	5 ;     CG2R61     CG2R61      HGR61
   18    17    34	5 ;     CG2R61     CG2R61      HGR61
   17    18    19	5 ;     CG2R61     CG2R61     CG2R61
   17    18    35	5 ;     CG2R61     CG2R61      HGR61
   19    18    35	5 ;     CG2R61     CG2R61      HGR61
   18    19    20	5 ;     CG2R61     CG2R61     CG2R61
   18    19    36	5 ;     CG2R61     CG2R61      HGR61
   20    19    36	5 ;     CG2R61     CG2R61      HGR61
   19    20    21	5 ;     CG2R61     CG2R61     CG2R61
   19    20    37	5 ;     CG2R61     CG2R61      HGR61
   21    20    37	5 ;     CG2R61     CG2R61      HGR61
   16    21    20	5 ;     CG2R61     CG2R61     CG2R61
   16    21    38	5 ;     CG2R61     CG2R61      HGR61
   20    21    38	5 ;     CG2R61     CG2R61      HGR61
    4    22    24	5 ;     CG3C53      NG3P3       HGP2
    4    22    23	5 ;     CG3C53      NG3P3       HGP2
    4    22    39	5 ;     CG3C53      NG3P3       HGP2
   24    22    23	5 ;       HGP2      NG3P3       HGP2
   24    22    39	5 ;       HGP2      NG3P3       HGP2
   23    22    39	5 ;       HGP2      NG3P3       HGP2

[ dihedrals ]
;	ai	  aj	ak	  al funct			  c0			c1			  c2			c3			  c4			c5
    9     1     2     3	 9 ;     CG2R61     CG3C50      NG3P2       HGP2
    9     1     2     4	 9 ;     CG2R61     CG3C50      NG3P2     CG3C53
    9     1     2    25	 9 ;     CG2R61     CG3C50      NG3P2       HGP2
   16     1     2     3	 9 ;     CG2R61     CG3C50      NG3P2       HGP2
   16     1     2     4	 9 ;     CG2R61     CG3C50      NG3P2     CG3C53
   16     1     2    25	 9 ;     CG2R61     CG3C50      NG3P2       HGP2
    7     1     2     3	 9 ;     CG2R53     CG3C50      NG3P2       HGP2
    7     1     2     4	 9 ;     CG2R53     CG3C50      NG3P2     CG3C53
    7     1     2    25	 9 ;     CG2R53     CG3C50      NG3P2       HGP2
    2     1     9    10	 9 ;      NG3P2     CG3C50     CG2R61     CG2R61
    2     1     9    15	 9 ;      NG3P2     CG3C50     CG2R61     CG2R61
   16     1     9    10	 9 ;     CG2R61     CG3C50     CG2R61     CG2R61
   16     1     9    15	 9 ;     CG2R61     CG3C50     CG2R61     CG2R61
    7     1     9    10	 9 ;     CG2R53     CG3C50     CG2R61     CG2R61
    7     1     9    15	 9 ;     CG2R53     CG3C50     CG2R61     CG2R61
    2     1    16    21	 9 ;      NG3P2     CG3C50     CG2R61     CG2R61
    2     1    16    17	 9 ;      NG3P2     CG3C50     CG2R61     CG2R61
    9     1    16    21	 9 ;     CG2R61     CG3C50     CG2R61     CG2R61
    9     1    16    17	 9 ;     CG2R61     CG3C50     CG2R61     CG2R61
    7     1    16    21	 9 ;     CG2R53     CG3C50     CG2R61     CG2R61
    7     1    16    17	 9 ;     CG2R53     CG3C50     CG2R61     CG2R61
    2     1     7     5	 9 ;      NG3P2     CG3C50     CG2R53     NG2R53
    2     1     7     8	 9 ;      NG3P2     CG3C50     CG2R53      OG2D1
    9     1     7     5	 9 ;     CG2R61     CG3C50     CG2R53     NG2R53
    9     1     7     8	 9 ;     CG2R61     CG3C50     CG2R53      OG2D1
   16     1     7     5	 9 ;     CG2R61     CG3C50     CG2R53     NG2R53
   16     1     7     8	 9 ;     CG2R61     CG3C50     CG2R53      OG2D1
    1     2     4     5	 9 ;     CG3C50      NG3P2     CG3C53     NG2R53
    1     2     4    22	 9 ;     CG3C50      NG3P2     CG3C53      NG3P3
    1     2     4    26	 9 ;     CG3C50      NG3P2     CG3C53       HGA1
    3     2     4     5	 9 ;       HGP2      NG3P2     CG3C53     NG2R53
    3     2     4    22	 9 ;       HGP2      NG3P2     CG3C53      NG3P3
    3     2     4    26	 9 ;       HGP2      NG3P2     CG3C53       HGA1
   25     2     4     5	 9 ;       HGP2      NG3P2     CG3C53     NG2R53
   25     2     4    22	 9 ;       HGP2      NG3P2     CG3C53      NG3P3
   25     2     4    26	 9 ;       HGP2      NG3P2     CG3C53       HGA1
    2     4     5     7	 9 ;      NG3P2     CG3C53     NG2R53     CG2R53
    2     4     5     6	 9 ;      NG3P2     CG3C53     NG2R53      CG331
   22     4     5     7	 9 ;      NG3P3     CG3C53     NG2R53     CG2R53
   22     4     5     6	 9 ;      NG3P3     CG3C53     NG2R53      CG331
   26     4     5     7	 9 ;       HGA1     CG3C53     NG2R53     CG2R53
   26     4     5     6	 9 ;       HGA1     CG3C53     NG2R53      CG331
    2     4    22    24	 9 ;      NG3P2     CG3C53      NG3P3       HGP2
    2     4    22    23	 9 ;      NG3P2     CG3C53      NG3P3       HGP2
    2     4    22    39	 9 ;      NG3P2     CG3C53      NG3P3       HGP2
    5     4    22    24	 9 ;     NG2R53     CG3C53      NG3P3       HGP2
    5     4    22    23	 9 ;     NG2R53     CG3C53      NG3P3       HGP2
    5     4    22    39	 9 ;     NG2R53     CG3C53      NG3P3       HGP2
   26     4    22    24	 9 ;       HGA1     CG3C53      NG3P3       HGP2
   26     4    22    23	 9 ;       HGA1     CG3C53      NG3P3       HGP2
   26     4    22    39	 9 ;       HGA1     CG3C53      NG3P3       HGP2
    4     5     7     1	 9 ;     CG3C53     NG2R53     CG2R53     CG3C50
    4     5     7     8	 9 ;     CG3C53     NG2R53     CG2R53      OG2D1
    6     5     7     1	 9 ;      CG331     NG2R53     CG2R53     CG3C50
    6     5     7     8	 9 ;      CG331     NG2R53     CG2R53      OG2D1
    4     5     6    27	 9 ;     CG3C53     NG2R53      CG331       HGA3
    4     5     6    28	 9 ;     CG3C53     NG2R53      CG331       HGA3
    4     5     6    29	 9 ;     CG3C53     NG2R53      CG331       HGA3
    7     5     6    27	 9 ;     CG2R53     NG2R53      CG331       HGA3
    7     5     6    28	 9 ;     CG2R53     NG2R53      CG331       HGA3
    7     5     6    29	 9 ;     CG2R53     NG2R53      CG331       HGA3
    1     9    10    11	 9 ;     CG3C50     CG2R61     CG2R61     CG2R61
    1     9    10    30	 9 ;     CG3C50     CG2R61     CG2R61      HGR61
   15     9    10    11	 9 ;     CG2R61     CG2R61     CG2R61     CG2R61
   15     9    10    30	 9 ;     CG2R61     CG2R61     CG2R61      HGR61
    1     9    15    14	 9 ;     CG3C50     CG2R61     CG2R61     CG2R61
    1     9    15    33	 9 ;     CG3C50     CG2R61     CG2R61      HGR61
   10     9    15    14	 9 ;     CG2R61     CG2R61     CG2R61     CG2R61
   10     9    15    33	 9 ;     CG2R61     CG2R61     CG2R61      HGR61
    9    10    11    12	 9 ;     CG2R61     CG2R61     CG2R61     CG2R61
    9    10    11    31	 9 ;     CG2R61     CG2R61     CG2R61      HGR62
   30    10    11    12	 9 ;      HGR61     CG2R61     CG2R61     CG2R61
   30    10    11    31	 9 ;      HGR61     CG2R61     CG2R61      HGR62
   10    11    12    13	 9 ;     CG2R61     CG2R61     CG2R61      CLGR1
   10    11    12    14	 9 ;     CG2R61     CG2R61     CG2R61     CG2R61
   31    11    12    13	 9 ;      HGR62     CG2R61     CG2R61      CLGR1
   31    11    12    14	 9 ;      HGR62     CG2R61     CG2R61     CG2R61
   11    12    14    15	 9 ;     CG2R61     CG2R61     CG2R61     CG2R61
   11    12    14    32	 9 ;     CG2R61     CG2R61     CG2R61      HGR62
   13    12    14    15	 9 ;      CLGR1     CG2R61     CG2R61     CG2R61
   13    12    14    32	 9 ;      CLGR1     CG2R61     CG2R61      HGR62
   12    14    15     9	 9 ;     CG2R61     CG2R61     CG2R61     CG2R61
   12    14    15    33	 9 ;     CG2R61     CG2R61     CG2R61      HGR61
   32    14    15     9	 9 ;      HGR62     CG2R61     CG2R61     CG2R61
   32    14    15    33	 9 ;      HGR62     CG2R61     CG2R61      HGR61
    1    16    21    20	 9 ;     CG3C50     CG2R61     CG2R61     CG2R61
    1    16    21    38	 9 ;     CG3C50     CG2R61     CG2R61      HGR61
   17    16    21    20	 9 ;     CG2R61     CG2R61     CG2R61     CG2R61
   17    16    21    38	 9 ;     CG2R61     CG2R61     CG2R61      HGR61
    1    16    17    18	 9 ;     CG3C50     CG2R61     CG2R61     CG2R61
    1    16    17    34	 9 ;     CG3C50     CG2R61     CG2R61      HGR61
   21    16    17    18	 9 ;     CG2R61     CG2R61     CG2R61     CG2R61
   21    16    17    34	 9 ;     CG2R61     CG2R61     CG2R61      HGR61
   16    17    18    19	 9 ;     CG2R61     CG2R61     CG2R61     CG2R61
   16    17    18    35	 9 ;     CG2R61     CG2R61     CG2R61      HGR61
   34    17    18    19	 9 ;      HGR61     CG2R61     CG2R61     CG2R61
   34    17    18    35	 9 ;      HGR61     CG2R61     CG2R61      HGR61
   17    18    19    20	 9 ;     CG2R61     CG2R61     CG2R61     CG2R61
   17    18    19    36	 9 ;     CG2R61     CG2R61     CG2R61      HGR61
   35    18    19    20	 9 ;      HGR61     CG2R61     CG2R61     CG2R61
   35    18    19    36	 9 ;      HGR61     CG2R61     CG2R61      HGR61
   18    19    20    21	 9 ;     CG2R61     CG2R61     CG2R61     CG2R61
   18    19    20    37	 9 ;     CG2R61     CG2R61     CG2R61      HGR61
   36    19    20    21	 9 ;      HGR61     CG2R61     CG2R61     CG2R61
   36    19    20    37	 9 ;      HGR61     CG2R61     CG2R61      HGR61
   19    20    21    16	 9 ;     CG2R61     CG2R61     CG2R61     CG2R61
   19    20    21    38	 9 ;     CG2R61     CG2R61     CG2R61      HGR61
   37    20    21    16	 9 ;      HGR61     CG2R61     CG2R61     CG2R61
   37    20    21    38	 9 ;      HGR61     CG2R61     CG2R61      HGR61

[ dihedrals ]
;	ai	  aj	ak	  al funct			  c0			c1			  c2			c3
    7     1     5     8	 2

[ virtual_sites2 ]
; Site   from				funct a
   40    13    12     2   -0.164

[ exclusions ]
;	ai	  aj
   13    40
   40    12
   40    11
   40    14
   40    10
   40    31
   40    15
   40    32

