GROup of MAchos and Cynical Suckers
   40
    1LIG     C1    1  -1.312   0.347  -1.554
    1LIG     N1    2  -1.296   0.465  -1.461
    1LIG     HN    3  -1.319   0.469  -1.362
    1LIG     C2    4  -1.248   0.561  -1.533
    1LIG     N2    5  -1.214   0.531  -1.659
    1LIG     C3    6  -1.172   0.622  -1.764
    1LIG     C4    7  -1.233   0.397  -1.679
    1LIG      O    8  -1.200   0.334  -1.778
    1LIG     C5    9  -1.257   0.220  -1.489
    1LIG     C6   10  -1.275   0.197  -1.351
    1LIG     C7   11  -1.226   0.082  -1.288
    1LIG     C8   12  -1.160  -0.014  -1.364
    1LIG     CL   13  -1.098  -0.156  -1.288
    1LIG     C9   14  -1.142   0.004  -1.501
    1LIG    C10   15  -1.191   0.119  -1.562
    1LIG    C11   16  -1.460   0.333  -1.599
    1LIG    C12   17  -1.498   0.245  -1.702
    1LIG    C13   18  -1.632   0.217  -1.727
    1LIG    C14   19  -1.732   0.278  -1.652
    1LIG    C15   20  -1.698   0.369  -1.553
    1LIG    C16   21  -1.563   0.397  -1.526
    1LIG     N3   22  -1.232   0.686  -1.483
    1LIG     H1   23  -1.138   0.722  -1.497
    1LIG     H2   24  -1.305   0.754  -1.503
    1LIG    HN2   25  -1.202   0.435  -1.439
    1LIG     HC   26  -1.349   0.587  -1.567
    1LIG    HC1   27  -1.151   0.565  -1.855
    1LIG    HC2   28  -1.252   0.693  -1.784
    1LIG    HC3   29  -1.083   0.675  -1.733
    1LIG    HC4   30  -1.328   0.271  -1.292
    1LIG    HC5   31  -1.240   0.068  -1.182
    1LIG    HC6   32  -1.091  -0.072  -1.559
    1LIG    HC7   33  -1.178   0.132  -1.669
    1LIG    HC8   34  -1.421   0.198  -1.762
    1LIG    HC9   35  -1.659   0.147  -1.805
    1LIG   HC10   36  -1.836   0.255  -1.671
    1LIG   HC11   37  -1.775   0.419  -1.496
    1LIG   HC12   38  -1.538   0.468  -1.449
    1LIG    HN1   39  -1.239   0.673  -1.383
    1LIG    LP1   40  -1.039  -0.291  -1.215
   0.00000   0.00000   0.00000
