Georgetown Riga Oslo Madrid Amsterdam Chisinau Stockholm
   40
    1LIG     C1    1  -1.269   0.332  -1.533
    1LIG     N1    2  -1.248   0.445  -1.436
    1LIG     HN    3  -1.265   0.443  -1.335
    1LIG     C2    4  -1.203   0.544  -1.506
    1LIG     N2    5  -1.181   0.521  -1.636
    1LIG     C3    6  -1.164   0.619  -1.740
    1LIG     C4    7  -1.201   0.387  -1.661
    1LIG      O    8  -1.177   0.329  -1.766
    1LIG     C5    9  -1.215   0.201  -1.473
    1LIG     C6   10  -1.255   0.170  -1.341
    1LIG     C7   11  -1.233   0.043  -1.287
    1LIG     C8   12  -1.168  -0.054  -1.362
    1LIG     C9   13  -1.122  -0.023  -1.490
    1LIG    C10   14  -1.145   0.104  -1.545
    1LIG    C11   15  -1.418   0.312  -1.569
    1LIG    C12   16  -1.520   0.378  -1.499
    1LIG    C13   17  -1.654   0.359  -1.536
    1LIG     CL   18  -1.778   0.441  -1.450
    1LIG    C14   19  -1.687   0.274  -1.641
    1LIG    C15   20  -1.587   0.208  -1.711
    1LIG    C16   21  -1.454   0.227  -1.676
    1LIG     N3   22  -1.177   0.665  -1.451
    1LIG     H1   23  -1.166   0.737  -1.521
    1LIG     H2   24  -1.239   0.693  -1.376
    1LIG    HN2   25  -1.153   0.413  -1.420
    1LIG     HC   26  -1.305   0.575  -1.528
    1LIG    HC1   27  -1.148   0.570  -1.836
    1LIG    HC2   28  -1.253   0.682  -1.746
    1LIG    HC3   29  -1.078   0.682  -1.717
    1LIG    HC4   30  -1.303   0.245  -1.281
    1LIG    HC5   31  -1.266   0.021  -1.186
    1LIG    HC6   32  -1.153  -0.153  -1.322
    1LIG    HC7   33  -1.069  -0.097  -1.547
    1LIG    HC8   34  -1.108   0.126  -1.645
    1LIG    HC9   35  -1.496   0.444  -1.417
    1LIG   HC10   36  -1.791   0.259  -1.668
    1LIG   HC11   37  -1.612   0.142  -1.793
    1LIG   HC12   38  -1.376   0.176  -1.731
    1LIG    HN1   39  -1.086   0.655  -1.408
    1LIG    LP1   40  -1.896   0.520  -1.368
   0.00000   0.00000   0.00000
