Gravel Rubs Often Many Awfully Cauterized Sores
   49
    1LIG     C1    1  -1.283   0.356  -1.612
    1LIG     C2    2  -1.256   0.218  -1.609
    1LIG     C3    3  -1.133   0.166  -1.653
    1LIG     C4    4  -1.033   0.251  -1.701
    1LIG     C5    5  -1.057   0.387  -1.707
    1LIG     C6    6  -1.181   0.438  -1.665
    1LIG     C7    7  -1.109   0.025  -1.645
    1LIG     N1    8  -1.090  -0.090  -1.638
    1LIG     C8    9  -1.407   0.411  -1.551
    1LIG     C9   10  -1.494   0.489  -1.628
    1LIG    C10   11  -1.598   0.570  -1.573
    1LIG    C11   12  -1.637   0.544  -1.443
    1LIG    C12   13  -1.672   0.673  -1.659
    1LIG     O1   14  -1.756   0.585  -1.390
    1LIG    C13   15  -1.556   0.461  -1.364
    1LIG    C14   16  -1.837   0.674  -1.470
    1LIG    C15   17  -1.819   0.650  -1.625
    1LIG    C16   18  -1.804   0.817  -1.419
    1LIG    C17   19  -1.984   0.649  -1.433
    1LIG    C18   20  -1.440   0.400  -1.416
    1LIG     N2   21  -1.654   0.822  -1.636
    1LIG    C19   22  -1.611   0.670  -1.800
    1LIG    C20   23  -1.586   0.866  -1.735
    1LIG     HN   24  -1.690   0.877  -1.557
    1LIG     N3   25  -1.516   0.772  -1.801
    1LIG    C21   26  -1.392   0.757  -1.720
    1LIG     O2   27  -1.648   0.604  -1.896
    1LIG     N4   28  -1.570   0.996  -1.768
    1LIG     H1   29  -1.541   1.048  -1.686
    1LIG     H2   30  -1.497   1.006  -1.838
    1LIG     H3   31  -1.328   0.153  -1.574
    1LIG     H4   32  -0.942   0.212  -1.731
    1LIG     H5   33  -0.984   0.451  -1.742
    1LIG     H6   34  -1.198   0.540  -1.672
    1LIG     H7   35  -1.483   0.488  -1.730
    1LIG     H8   36  -1.582   0.445  -1.265
    1LIG     H9   37  -1.847   0.550  -1.650
    1LIG    H10   38  -1.881   0.716  -1.682
    1LIG    H11   39  -1.861   0.889  -1.474
    1LIG    H12   40  -1.700   0.836  -1.432
    1LIG    H13   41  -1.829   0.824  -1.315
    1LIG    H14   42  -2.047   0.714  -1.490
    1LIG    H15   43  -1.998   0.669  -1.329
    1LIG    H16   44  -2.009   0.547  -1.453
    1LIG    H17   45  -1.379   0.347  -1.352
    1LIG    H18   46  -1.668   0.927  -1.766
    1LIG    H19   47  -1.329   0.683  -1.765
    1LIG    H20   48  -1.418   0.726  -1.621
    1LIG    H21   49  -1.340   0.850  -1.716
   0.00000   0.00000   0.00000
