; Created by cgenff_charmm2gmx.py

[ moleculetype ]
; Name			   nrexcl
LIG				 3

[ atoms ]
;	 nr		  type	resnr residue  atom   cgnr	   charge		mass  typeB    chargeB		massB
; residue	 1 LIG rtp LIG q	qsum
     1     CG2R67      1    LIG     C1      1      0.005     12.011   ;
     2     CG2R61      1    LIG     C2      2     -0.119     12.011   ;
     3     CG2R61      1    LIG     C3      3      0.097     12.011   ;
     4     CG2R61      1    LIG     C4      4     -0.112     12.011   ;
     5     CG2R61      1    LIG     C5      5     -0.117     12.011   ;
     6     CG2R61      1    LIG     C6      6     -0.119     12.011   ;
     7      CG1N1      1    LIG     C7      7      0.364     12.011   ;
     8      NG1T1      1    LIG     N1      8     -0.463     14.007   ;
     9     CG2R67      1    LIG     C8      9      0.014     12.011   ;
    10     CG2R61      1    LIG     C9     10     -0.179     12.011   ;
    11     CG2R61      1    LIG    C10     11     -0.050     12.011   ;
    12     CG2R61      1    LIG    C11     12      0.079     12.011   ;
    13     CG3C50      1    LIG    C12     13      0.970     12.011   ;
    14     OG3R60      1    LIG     O1     14     -0.368     15.999   ;
    15     CG2R61      1    LIG    C13     15     -0.112     12.011   ;
    16      CG301      1    LIG    C14     16      0.257     12.011   ;
    17      CG321      1    LIG    C15     17     -0.252     12.011   ;
    18      CG331      1    LIG    C16     18     -0.287     12.011   ;
    19      CG331      1    LIG    C17     19     -0.287     12.011   ;
    20     CG2R61      1    LIG    C18     20     -0.115     12.011   ;
    21     NG3C51      1    LIG     N2     21     -0.729     14.007   ;
    22     CG2R53      1    LIG    C19     22      0.099     12.011   ;
    23     CG3C51      1    LIG    C20     23      0.353     12.011   ;
    24       HGP1      1    LIG     HN     24      0.231      1.008   ;
    25     NG2R53      1    LIG     N3     25     -0.365     14.007   ;
    26      CG331      1    LIG    C21     26     -0.126     12.011   ;
    27      OG2D1      1    LIG     O2     27     -0.402     15.999   ;
    28      NG321      1    LIG     N4     28     -0.877     14.007   ;
    29     HGPAM2      1    LIG     H1     29      0.349      1.008   ;
    30     HGPAM2      1    LIG     H2     30      0.349      1.008   ;
    31      HGR61      1    LIG     H3     31      0.116      1.008   ;
    32      HGR61      1    LIG     H4     32      0.116      1.008   ;
    33      HGR61      1    LIG     H5     33      0.116      1.008   ;
    34      HGR61      1    LIG     H6     34      0.116      1.008   ;
    35      HGR61      1    LIG     H7     35      0.116      1.008   ;
    36      HGR61      1    LIG     H8     36      0.116      1.008   ;
    37       HGA2      1    LIG     H9     37      0.090      1.008   ;
    38       HGA2      1    LIG    H10     38      0.090      1.008   ;
    39       HGA3      1    LIG    H11     39      0.090      1.008   ;
    40       HGA3      1    LIG    H12     40      0.090      1.008   ;
    41       HGA3      1    LIG    H13     41      0.090      1.008   ;
    42       HGA3      1    LIG    H14     42      0.090      1.008   ;
    43       HGA3      1    LIG    H15     43      0.090      1.008   ;
    44       HGA3      1    LIG    H16     44      0.090      1.008   ;
    45      HGR61      1    LIG    H17     45      0.116      1.008   ;
    46       HGA1      1    LIG    H18     46      0.110      1.008   ;
    47       HGA3      1    LIG    H19     47      0.090      1.008   ;
    48       HGA3      1    LIG    H20     48      0.090      1.008   ;
    49       HGA3      1    LIG    H21     49      0.090      1.008   ;

[ bonds ]
;	ai	  aj funct			  c0			c1			  c2			c3
    1     6	 1 ;      CG2R67     CG2R61
    1     2	 1 ;      CG2R67     CG2R61
    1     9	 1 ;      CG2R67     CG2R67
    2     3	 1 ;      CG2R61     CG2R61
    2    31	 1 ;      CG2R61      HGR61
    3     4	 1 ;      CG2R61     CG2R61
    3     7	 1 ;      CG2R61      CG1N1
    4     5	 1 ;      CG2R61     CG2R61
    4    32	 1 ;      CG2R61      HGR61
    5     6	 1 ;      CG2R61     CG2R61
    5    33	 1 ;      CG2R61      HGR61
    6    34	 1 ;      CG2R61      HGR61
    7     8	 1 ;       CG1N1      NG1T1
    9    10	 1 ;      CG2R67     CG2R61
    9    20	 1 ;      CG2R67     CG2R61
   10    11	 1 ;      CG2R61     CG2R61
   10    35	 1 ;      CG2R61      HGR61
   11    13	 1 ;      CG2R61     CG3C50
   11    12	 1 ;      CG2R61     CG2R61
   12    14	 1 ;      CG2R61     OG3R60
   12    15	 1 ;      CG2R61     CG2R61
   13    22	 1 ;      CG3C50     CG2R53
   13    21	 1 ;      CG3C50     NG3C51
   13    17	 1 ;      CG3C50      CG321
   14    16	 1 ;      OG3R60      CG301
   15    20	 1 ;      CG2R61     CG2R61
   15    36	 1 ;      CG2R61      HGR61
   16    17	 1 ;       CG301      CG321
   16    19	 1 ;       CG301      CG331
   16    18	 1 ;       CG301      CG331
   17    37	 1 ;       CG321       HGA2
   17    38	 1 ;       CG321       HGA2
   18    39	 1 ;       CG331       HGA3
   18    40	 1 ;       CG331       HGA3
   18    41	 1 ;       CG331       HGA3
   19    42	 1 ;       CG331       HGA3
   19    43	 1 ;       CG331       HGA3
   19    44	 1 ;       CG331       HGA3
   20    45	 1 ;      CG2R61      HGR61
   21    23	 1 ;      NG3C51     CG3C51
   21    24	 1 ;      NG3C51       HGP1
   22    27	 1 ;      CG2R53      OG2D1
   22    25	 1 ;      CG2R53     NG2R53
   23    25	 1 ;      CG3C51     NG2R53
   23    28	 1 ;      CG3C51      NG321
   23    46	 1 ;      CG3C51       HGA1
   25    26	 1 ;      NG2R53      CG331
   26    47	 1 ;       CG331       HGA3
   26    48	 1 ;       CG331       HGA3
   26    49	 1 ;       CG331       HGA3
   28    30	 1 ;       NG321     HGPAM2
   28    29	 1 ;       NG321     HGPAM2

[ pairs ]
;	ai	  aj funct			  c0			c1			  c2			c3
    1     4	 1
    1     7	 1
    1    33	 1
    1    11	 1
    1    35	 1
    1    15	 1
    1    45	 1
    2     5	 1
    2    34	 1
    2    10	 1
    2    20	 1
    2    32	 1
    2     8	 1
    3     6	 1
    3     9	 1
    3    33	 1
    4    31	 1
    4     8	 1
    4    34	 1
    5     9	 1
    5     7	 1
    6    31	 1
    6    10	 1
    6    20	 1
    6    32	 1
    7    31	 1
    7    32	 1
    9    34	 1
    9    31	 1
    9    13	 1
    9    12	 1
    9    36	 1
   10    15	 1
   10    45	 1
   10    22	 1
   10    21	 1
   10    17	 1
   10    14	 1
   11    20	 1
   11    16	 1
   11    36	 1
   11    27	 1
   11    25	 1
   11    23	 1
   11    24	 1
   11    37	 1
   11    38	 1
   12    35	 1
   12    22	 1
   12    21	 1
   12    17	 1
   12    19	 1
   12    18	 1
   12    45	 1
   13    35	 1
   13    14	 1
   13    15	 1
   13    19	 1
   13    18	 1
   13    28	 1
   13    46	 1
   13    26	 1
   14    20	 1
   14    36	 1
   14    37	 1
   14    38	 1
   14    42	 1
   14    43	 1
   14    44	 1
   14    39	 1
   14    40	 1
   14    41	 1
   15    16	 1
   16    22	 1
   16    21	 1
   17    27	 1
   17    25	 1
   17    23	 1
   17    24	 1
   17    42	 1
   17    43	 1
   17    44	 1
   17    39	 1
   17    40	 1
   17    41	 1
   18    37	 1
   18    38	 1
   18    42	 1
   18    43	 1
   18    44	 1
   19    37	 1
   19    38	 1
   19    39	 1
   19    40	 1
   19    41	 1
   20    35	 1
   21    27	 1
   21    37	 1
   21    38	 1
   21    26	 1
   21    30	 1
   21    29	 1
   22    24	 1
   22    37	 1
   22    38	 1
   22    28	 1
   22    46	 1
   22    47	 1
   22    48	 1
   22    49	 1
   23    27	 1
   23    47	 1
   23    48	 1
   23    49	 1
   24    25	 1
   24    28	 1
   24    46	 1
   25    30	 1
   25    29	 1
   26    27	 1
   26    28	 1
   26    46	 1
   29    46	 1
   30    46	 1
   32    33	 1
   33    34	 1
   36    45	 1

[ angles ]
;	ai	  aj	ak funct			c0			  c1			c2			  c3
    6     1     2	5 ;     CG2R61     CG2R67     CG2R61
    6     1     9	5 ;     CG2R61     CG2R67     CG2R67
    2     1     9	5 ;     CG2R61     CG2R67     CG2R67
    3     2     1	5 ;     CG2R61     CG2R61     CG2R67
    3     2    31	5 ;     CG2R61     CG2R61      HGR61
    1     2    31	5 ;     CG2R67     CG2R61      HGR61
    4     3     7	5 ;     CG2R61     CG2R61      CG1N1
    4     3     2	5 ;     CG2R61     CG2R61     CG2R61
    7     3     2	5 ;      CG1N1     CG2R61     CG2R61
    5     4     3	5 ;     CG2R61     CG2R61     CG2R61
    5     4    32	5 ;     CG2R61     CG2R61      HGR61
    3     4    32	5 ;     CG2R61     CG2R61      HGR61
    4     5     6	5 ;     CG2R61     CG2R61     CG2R61
    4     5    33	5 ;     CG2R61     CG2R61      HGR61
    6     5    33	5 ;     CG2R61     CG2R61      HGR61
    5     6     1	5 ;     CG2R61     CG2R61     CG2R67
    5     6    34	5 ;     CG2R61     CG2R61      HGR61
    1     6    34	5 ;     CG2R67     CG2R61      HGR61
    3     7     8	5 ;     CG2R61      CG1N1      NG1T1
   10     9     1	5 ;     CG2R61     CG2R67     CG2R67
   10     9    20	5 ;     CG2R61     CG2R67     CG2R61
    1     9    20	5 ;     CG2R67     CG2R67     CG2R61
   11    10     9	5 ;     CG2R61     CG2R61     CG2R67
   11    10    35	5 ;     CG2R61     CG2R61      HGR61
    9    10    35	5 ;     CG2R67     CG2R61      HGR61
   13    11    10	5 ;     CG3C50     CG2R61     CG2R61
   13    11    12	5 ;     CG3C50     CG2R61     CG2R61
   10    11    12	5 ;     CG2R61     CG2R61     CG2R61
   11    12    14	5 ;     CG2R61     CG2R61     OG3R60
   11    12    15	5 ;     CG2R61     CG2R61     CG2R61
   14    12    15	5 ;     OG3R60     CG2R61     CG2R61
   22    13    21	5 ;     CG2R53     CG3C50     NG3C51
   22    13    17	5 ;     CG2R53     CG3C50      CG321
   22    13    11	5 ;     CG2R53     CG3C50     CG2R61
   21    13    17	5 ;     NG3C51     CG3C50      CG321
   21    13    11	5 ;     NG3C51     CG3C50     CG2R61
   17    13    11	5 ;      CG321     CG3C50     CG2R61
   16    14    12	5 ;      CG301     OG3R60     CG2R61
   12    15    20	5 ;     CG2R61     CG2R61     CG2R61
   12    15    36	5 ;     CG2R61     CG2R61      HGR61
   20    15    36	5 ;     CG2R61     CG2R61      HGR61
   17    16    19	5 ;      CG321      CG301      CG331
   17    16    18	5 ;      CG321      CG301      CG331
   17    16    14	5 ;      CG321      CG301     OG3R60
   19    16    18	5 ;      CG331      CG301      CG331
   19    16    14	5 ;      CG331      CG301     OG3R60
   18    16    14	5 ;      CG331      CG301     OG3R60
   13    17    16	5 ;     CG3C50      CG321      CG301
   13    17    37	5 ;     CG3C50      CG321       HGA2
   13    17    38	5 ;     CG3C50      CG321       HGA2
   16    17    37	5 ;      CG301      CG321       HGA2
   16    17    38	5 ;      CG301      CG321       HGA2
   37    17    38	5 ;       HGA2      CG321       HGA2
   16    18    39	5 ;      CG301      CG331       HGA3
   16    18    40	5 ;      CG301      CG331       HGA3
   16    18    41	5 ;      CG301      CG331       HGA3
   39    18    40	5 ;       HGA3      CG331       HGA3
   39    18    41	5 ;       HGA3      CG331       HGA3
   40    18    41	5 ;       HGA3      CG331       HGA3
   16    19    42	5 ;      CG301      CG331       HGA3
   16    19    43	5 ;      CG301      CG331       HGA3
   16    19    44	5 ;      CG301      CG331       HGA3
   42    19    43	5 ;       HGA3      CG331       HGA3
   42    19    44	5 ;       HGA3      CG331       HGA3
   43    19    44	5 ;       HGA3      CG331       HGA3
    9    20    15	5 ;     CG2R67     CG2R61     CG2R61
    9    20    45	5 ;     CG2R67     CG2R61      HGR61
   15    20    45	5 ;     CG2R61     CG2R61      HGR61
   23    21    13	5 ;     CG3C51     NG3C51     CG3C50
   23    21    24	5 ;     CG3C51     NG3C51       HGP1
   13    21    24	5 ;     CG3C50     NG3C51       HGP1
   27    22    25	5 ;      OG2D1     CG2R53     NG2R53
   27    22    13	5 ;      OG2D1     CG2R53     CG3C50
   25    22    13	5 ;     NG2R53     CG2R53     CG3C50
   25    23    28	5 ;     NG2R53     CG3C51      NG321
   25    23    21	5 ;     NG2R53     CG3C51     NG3C51
   25    23    46	5 ;     NG2R53     CG3C51       HGA1
   28    23    21	5 ;      NG321     CG3C51     NG3C51
   28    23    46	5 ;      NG321     CG3C51       HGA1
   21    23    46	5 ;     NG3C51     CG3C51       HGA1
   22    25    23	5 ;     CG2R53     NG2R53     CG3C51
   22    25    26	5 ;     CG2R53     NG2R53      CG331
   23    25    26	5 ;     CG3C51     NG2R53      CG331
   25    26    47	5 ;     NG2R53      CG331       HGA3
   25    26    48	5 ;     NG2R53      CG331       HGA3
   25    26    49	5 ;     NG2R53      CG331       HGA3
   47    26    48	5 ;       HGA3      CG331       HGA3
   47    26    49	5 ;       HGA3      CG331       HGA3
   48    26    49	5 ;       HGA3      CG331       HGA3
   30    28    23	5 ;     HGPAM2      NG321     CG3C51
   30    28    29	5 ;     HGPAM2      NG321     HGPAM2
   23    28    29	5 ;     CG3C51      NG321     HGPAM2

[ dihedrals ]
;	ai	  aj	ak	  al funct			  c0			c1			  c2			c3			  c4			c5
    2     1     6     5	 9 ;     CG2R61     CG2R67     CG2R61     CG2R61
    2     1     6    34	 9 ;     CG2R61     CG2R67     CG2R61      HGR61
    9     1     6     5	 9 ;     CG2R67     CG2R67     CG2R61     CG2R61
    9     1     6    34	 9 ;     CG2R67     CG2R67     CG2R61      HGR61
    6     1     2     3	 9 ;     CG2R61     CG2R67     CG2R61     CG2R61
    6     1     2    31	 9 ;     CG2R61     CG2R67     CG2R61      HGR61
    9     1     2     3	 9 ;     CG2R67     CG2R67     CG2R61     CG2R61
    9     1     2    31	 9 ;     CG2R67     CG2R67     CG2R61      HGR61
    6     1     9    10	 9 ;     CG2R61     CG2R67     CG2R67     CG2R61
    6     1     9    20	 9 ;     CG2R61     CG2R67     CG2R67     CG2R61
    2     1     9    10	 9 ;     CG2R61     CG2R67     CG2R67     CG2R61
    2     1     9    20	 9 ;     CG2R61     CG2R67     CG2R67     CG2R61
    1     2     3     4	 9 ;     CG2R67     CG2R61     CG2R61     CG2R61
    1     2     3     7	 9 ;     CG2R67     CG2R61     CG2R61      CG1N1
   31     2     3     4	 9 ;      HGR61     CG2R61     CG2R61     CG2R61
   31     2     3     7	 9 ;      HGR61     CG2R61     CG2R61      CG1N1
    7     3     4     5	 9 ;      CG1N1     CG2R61     CG2R61     CG2R61
    7     3     4    32	 9 ;      CG1N1     CG2R61     CG2R61      HGR61
    2     3     4     5	 9 ;     CG2R61     CG2R61     CG2R61     CG2R61
    2     3     4    32	 9 ;     CG2R61     CG2R61     CG2R61      HGR61
    3     4     5     6	 9 ;     CG2R61     CG2R61     CG2R61     CG2R61
    3     4     5    33	 9 ;     CG2R61     CG2R61     CG2R61      HGR61
   32     4     5     6	 9 ;      HGR61     CG2R61     CG2R61     CG2R61
   32     4     5    33	 9 ;      HGR61     CG2R61     CG2R61      HGR61
    4     5     6     1	 9 ;     CG2R61     CG2R61     CG2R61     CG2R67
    4     5     6    34	 9 ;     CG2R61     CG2R61     CG2R61      HGR61
   33     5     6     1	 9 ;      HGR61     CG2R61     CG2R61     CG2R67
   33     5     6    34	 9 ;      HGR61     CG2R61     CG2R61      HGR61
    1     9    10    11	 9 ;     CG2R67     CG2R67     CG2R61     CG2R61
    1     9    10    35	 9 ;     CG2R67     CG2R67     CG2R61      HGR61
   20     9    10    11	 9 ;     CG2R61     CG2R67     CG2R61     CG2R61
   20     9    10    35	 9 ;     CG2R61     CG2R67     CG2R61      HGR61
   10     9    20    15	 9 ;     CG2R61     CG2R67     CG2R61     CG2R61
   10     9    20    45	 9 ;     CG2R61     CG2R67     CG2R61      HGR61
    1     9    20    15	 9 ;     CG2R67     CG2R67     CG2R61     CG2R61
    1     9    20    45	 9 ;     CG2R67     CG2R67     CG2R61      HGR61
    9    10    11    13	 9 ;     CG2R67     CG2R61     CG2R61     CG3C50
    9    10    11    12	 9 ;     CG2R67     CG2R61     CG2R61     CG2R61
   35    10    11    13	 9 ;      HGR61     CG2R61     CG2R61     CG3C50
   35    10    11    12	 9 ;      HGR61     CG2R61     CG2R61     CG2R61
   10    11    13    22	 9 ;     CG2R61     CG2R61     CG3C50     CG2R53
   10    11    13    21	 9 ;     CG2R61     CG2R61     CG3C50     NG3C51
   10    11    13    17	 9 ;     CG2R61     CG2R61     CG3C50      CG321
   12    11    13    22	 9 ;     CG2R61     CG2R61     CG3C50     CG2R53
   12    11    13    21	 9 ;     CG2R61     CG2R61     CG3C50     NG3C51
   12    11    13    17	 9 ;     CG2R61     CG2R61     CG3C50      CG321
   13    11    12    14	 9 ;     CG3C50     CG2R61     CG2R61     OG3R60
   13    11    12    15	 9 ;     CG3C50     CG2R61     CG2R61     CG2R61
   10    11    12    14	 9 ;     CG2R61     CG2R61     CG2R61     OG3R60
   10    11    12    15	 9 ;     CG2R61     CG2R61     CG2R61     CG2R61
   11    12    14    16	 9 ;     CG2R61     CG2R61     OG3R60      CG301
   15    12    14    16	 9 ;     CG2R61     CG2R61     OG3R60      CG301
   11    12    15    20	 9 ;     CG2R61     CG2R61     CG2R61     CG2R61
   11    12    15    36	 9 ;     CG2R61     CG2R61     CG2R61      HGR61
   14    12    15    20	 9 ;     OG3R60     CG2R61     CG2R61     CG2R61
   14    12    15    36	 9 ;     OG3R60     CG2R61     CG2R61      HGR61
   21    13    22    27	 9 ;     NG3C51     CG3C50     CG2R53      OG2D1
   21    13    22    25	 9 ;     NG3C51     CG3C50     CG2R53     NG2R53
   17    13    22    27	 9 ;      CG321     CG3C50     CG2R53      OG2D1
   17    13    22    25	 9 ;      CG321     CG3C50     CG2R53     NG2R53
   11    13    22    27	 9 ;     CG2R61     CG3C50     CG2R53      OG2D1
   11    13    22    25	 9 ;     CG2R61     CG3C50     CG2R53     NG2R53
   22    13    21    23	 9 ;     CG2R53     CG3C50     NG3C51     CG3C51
   22    13    21    24	 9 ;     CG2R53     CG3C50     NG3C51       HGP1
   17    13    21    23	 9 ;      CG321     CG3C50     NG3C51     CG3C51
   17    13    21    24	 9 ;      CG321     CG3C50     NG3C51       HGP1
   11    13    21    23	 9 ;     CG2R61     CG3C50     NG3C51     CG3C51
   11    13    21    24	 9 ;     CG2R61     CG3C50     NG3C51       HGP1
   22    13    17    16	 9 ;     CG2R53     CG3C50      CG321      CG301
   22    13    17    37	 9 ;     CG2R53     CG3C50      CG321       HGA2
   22    13    17    38	 9 ;     CG2R53     CG3C50      CG321       HGA2
   21    13    17    16	 9 ;     NG3C51     CG3C50      CG321      CG301
   21    13    17    37	 9 ;     NG3C51     CG3C50      CG321       HGA2
   21    13    17    38	 9 ;     NG3C51     CG3C50      CG321       HGA2
   11    13    17    16	 9 ;     CG2R61     CG3C50      CG321      CG301
   11    13    17    37	 9 ;     CG2R61     CG3C50      CG321       HGA2
   11    13    17    38	 9 ;     CG2R61     CG3C50      CG321       HGA2
   12    14    16    17	 9 ;     CG2R61     OG3R60      CG301      CG321
   12    14    16    19	 9 ;     CG2R61     OG3R60      CG301      CG331
   12    14    16    18	 9 ;     CG2R61     OG3R60      CG301      CG331
   12    15    20     9	 9 ;     CG2R61     CG2R61     CG2R61     CG2R67
   12    15    20    45	 9 ;     CG2R61     CG2R61     CG2R61      HGR61
   36    15    20     9	 9 ;      HGR61     CG2R61     CG2R61     CG2R67
   36    15    20    45	 9 ;      HGR61     CG2R61     CG2R61      HGR61
   19    16    17    13	 9 ;      CG331      CG301      CG321     CG3C50
   19    16    17    37	 9 ;      CG331      CG301      CG321       HGA2
   19    16    17    38	 9 ;      CG331      CG301      CG321       HGA2
   18    16    17    13	 9 ;      CG331      CG301      CG321     CG3C50
   18    16    17    37	 9 ;      CG331      CG301      CG321       HGA2
   18    16    17    38	 9 ;      CG331      CG301      CG321       HGA2
   14    16    17    13	 9 ;     OG3R60      CG301      CG321     CG3C50
   14    16    17    37	 9 ;     OG3R60      CG301      CG321       HGA2
   14    16    17    38	 9 ;     OG3R60      CG301      CG321       HGA2
   17    16    19    42	 9 ;      CG321      CG301      CG331       HGA3
   17    16    19    43	 9 ;      CG321      CG301      CG331       HGA3
   17    16    19    44	 9 ;      CG321      CG301      CG331       HGA3
   18    16    19    42	 9 ;      CG331      CG301      CG331       HGA3
   18    16    19    43	 9 ;      CG331      CG301      CG331       HGA3
   18    16    19    44	 9 ;      CG331      CG301      CG331       HGA3
   14    16    19    42	 9 ;     OG3R60      CG301      CG331       HGA3
   14    16    19    43	 9 ;     OG3R60      CG301      CG331       HGA3
   14    16    19    44	 9 ;     OG3R60      CG301      CG331       HGA3
   17    16    18    39	 9 ;      CG321      CG301      CG331       HGA3
   17    16    18    40	 9 ;      CG321      CG301      CG331       HGA3
   17    16    18    41	 9 ;      CG321      CG301      CG331       HGA3
   19    16    18    39	 9 ;      CG331      CG301      CG331       HGA3
   19    16    18    40	 9 ;      CG331      CG301      CG331       HGA3
   19    16    18    41	 9 ;      CG331      CG301      CG331       HGA3
   14    16    18    39	 9 ;     OG3R60      CG301      CG331       HGA3
   14    16    18    40	 9 ;     OG3R60      CG301      CG331       HGA3
   14    16    18    41	 9 ;     OG3R60      CG301      CG331       HGA3
   13    21    23    25	 9 ;     CG3C50     NG3C51     CG3C51     NG2R53
   13    21    23    28	 9 ;     CG3C50     NG3C51     CG3C51      NG321
   13    21    23    46	 9 ;     CG3C50     NG3C51     CG3C51       HGA1
   24    21    23    25	 9 ;       HGP1     NG3C51     CG3C51     NG2R53
   24    21    23    28	 9 ;       HGP1     NG3C51     CG3C51      NG321
   24    21    23    46	 9 ;       HGP1     NG3C51     CG3C51       HGA1
   27    22    25    23	 9 ;      OG2D1     CG2R53     NG2R53     CG3C51
   27    22    25    26	 9 ;      OG2D1     CG2R53     NG2R53      CG331
   13    22    25    23	 9 ;     CG3C50     CG2R53     NG2R53     CG3C51
   13    22    25    26	 9 ;     CG3C50     CG2R53     NG2R53      CG331
   28    23    25    22	 9 ;      NG321     CG3C51     NG2R53     CG2R53
   28    23    25    26	 9 ;      NG321     CG3C51     NG2R53      CG331
   21    23    25    22	 9 ;     NG3C51     CG3C51     NG2R53     CG2R53
   21    23    25    26	 9 ;     NG3C51     CG3C51     NG2R53      CG331
   46    23    25    22	 9 ;       HGA1     CG3C51     NG2R53     CG2R53
   46    23    25    26	 9 ;       HGA1     CG3C51     NG2R53      CG331
   25    23    28    30	 9 ;     NG2R53     CG3C51      NG321     HGPAM2
   25    23    28    29	 9 ;     NG2R53     CG3C51      NG321     HGPAM2
   21    23    28    30	 9 ;     NG3C51     CG3C51      NG321     HGPAM2
   21    23    28    29	 9 ;     NG3C51     CG3C51      NG321     HGPAM2
   46    23    28    30	 9 ;       HGA1     CG3C51      NG321     HGPAM2
   46    23    28    29	 9 ;       HGA1     CG3C51      NG321     HGPAM2
   22    25    26    47	 9 ;     CG2R53     NG2R53      CG331       HGA3
   22    25    26    48	 9 ;     CG2R53     NG2R53      CG331       HGA3
   22    25    26    49	 9 ;     CG2R53     NG2R53      CG331       HGA3
   23    25    26    47	 9 ;     CG3C51     NG2R53      CG331       HGA3
   23    25    26    48	 9 ;     CG3C51     NG2R53      CG331       HGA3
   23    25    26    49	 9 ;     CG3C51     NG2R53      CG331       HGA3

[ dihedrals ]
;	ai	  aj	ak	  al funct			  c0			c1			  c2			c3
   22    13    25    27	 2

