Georgetown Riga Oslo Madrid Amsterdam Chisinau Stockholm
   70
    1LIG      S    1  -1.794   0.663  -1.447
    1LIG     O1    2  -1.706   0.726  -1.351
    1LIG     O2    3  -1.938   0.661  -1.426
    1LIG     C1    4  -1.761   0.729  -1.609
    1LIG     C2    5  -1.618   0.702  -1.659
    1LIG     C3    6  -1.576   0.554  -1.644
    1LIG     C4    7  -1.594   0.493  -1.503
    1LIG     C5    8  -1.740   0.495  -1.461
    1LIG      N    9  -1.551   0.346  -1.508
    1LIG     H1   10  -1.537   0.309  -1.413
    1LIG     H2   11  -1.629   0.292  -1.549
    1LIG     C6   12  -1.428   0.314  -1.587
    1LIG     C7   13  -1.309   0.293  -1.497
    1LIG     C8   14  -1.219   0.188  -1.519
    1LIG     C9   15  -1.108   0.167  -1.435
    1LIG    C10   16  -1.089   0.257  -1.329
    1LIG    C11   17  -1.177   0.362  -1.306
    1LIG    C12   18  -1.287   0.380  -1.390
    1LIG    C13   19  -1.009   0.052  -1.450
    1LIG    C14   20  -0.863   0.087  -1.421
    1LIG    C15   21  -1.051  -0.069  -1.366
    1LIG     O3   22  -1.652   0.473  -1.734
    1LIG     H3   23  -1.590   0.413  -1.781
    1LIG    C16   24  -1.517   0.801  -1.596
    1LIG    C17   25  -1.370   0.768  -1.610
    1LIG    C18   26  -1.302   0.770  -1.732
    1LIG    C19   27  -1.163   0.746  -1.739
    1LIG    C20   28  -1.094   0.716  -1.621
    1LIG    C21   29  -1.160   0.716  -1.498
    1LIG    C22   30  -1.297   0.744  -1.492
    1LIG    C23   31  -1.085   0.769  -1.866
    1LIG     O4   32  -0.985   0.670  -1.886
    1LIG    C24   33  -1.035   0.565  -1.970
    1LIG    C25   34  -1.012   0.427  -1.908
    1LIG    C26   35  -1.120   0.387  -1.810
    1LIG    HC2   36  -1.831   0.685  -1.679
    1LIG    HC3   37  -1.777   0.837  -1.606
    1LIG     HC   38  -1.619   0.723  -1.766
    1LIG    HC1   39  -1.471   0.546  -1.672
    1LIG    HC4   40  -1.533   0.547  -1.430
    1LIG    HC5   41  -1.752   0.445  -1.364
    1LIG    HC6   42  -1.801   0.444  -1.536
    1LIG    HC7   43  -1.445   0.223  -1.645
    1LIG    HC8   44  -1.407   0.397  -1.655
    1LIG    HC9   45  -1.235   0.121  -1.603
    1LIG   HC10   46  -1.004   0.244  -1.264
    1LIG   HC11   47  -1.161   0.430  -1.224
    1LIG   HC12   48  -1.355   0.462  -1.371
    1LIG   HC13   49  -1.014   0.021  -1.555
    1LIG   HC14   50  -0.834   0.173  -1.481
    1LIG   HC15   51  -0.852   0.111  -1.316
    1LIG   HC16   52  -0.799   0.002  -1.446
    1LIG   HC17   53  -1.155  -0.094  -1.387
    1LIG   HC18   54  -1.040  -0.045  -1.260
    1LIG   HC19   55  -0.988  -0.154  -1.391
    1LIG   HC20   56  -1.533   0.899  -1.642
    1LIG   HC21   57  -1.540   0.809  -1.490
    1LIG   HC22   58  -1.357   0.790  -1.823
    1LIG   HC23   59  -0.989   0.692  -1.625
    1LIG   HC24   60  -1.106   0.695  -1.407
    1LIG   HC25   61  -1.346   0.748  -1.397
    1LIG   HC26   62  -1.038   0.867  -1.861
    1LIG   HC27   63  -1.154   0.767  -1.951
    1LIG   HC28   64  -0.985   0.569  -2.066
    1LIG   HC29   65  -1.142   0.579  -1.985
    1LIG   HC30   66  -1.008   0.353  -1.988
    1LIG   HC31   67  -0.916   0.428  -1.856
    1LIG   HC32   68  -1.098   0.288  -1.769
    1LIG   HC33   69  -1.216   0.384  -1.861
    1LIG   HC34   70  -1.124   0.460  -1.728
   0.00000   0.00000   0.00000
