; Created by cgenff_charmm2gmx.py

[ moleculetype ]
; Name			   nrexcl
LIG				 3

[ atoms ]
;	 nr		  type	resnr residue  atom   cgnr	   charge		mass  typeB    chargeB		massB
; residue	 1 LIG rtp LIG q	qsum
     1      CG2O1      1    LIG     C1      1      0.494     12.011   ;
     2      OG2D1      1    LIG     O1      2     -0.509     15.999   ;
     3      NG2S1      1    LIG     N1      3     -0.401     14.007   ;
     4       HGP1      1    LIG     H1      4      0.269      1.008   ;
     5      CG311      1    LIG     C2      5     -0.042     12.011   ;
     6      CG321      1    LIG     C3      6     -0.101     12.011   ;
     7      CG311      1    LIG     C4      7     -0.109     12.011   ;
     8      CG331      1    LIG     C5      8     -0.268     12.011   ;
     9      CG331      1    LIG     C6      9     -0.268     12.011   ;
    10      CG311      1    LIG     C7     10      0.119     12.011   ;
    11      CG321      1    LIG     C8     11     -0.187     12.011   ;
    12      CG311      1    LIG     C9     12     -0.033     12.011   ;
    13      CG331      1    LIG    C10     13     -0.266     12.011   ;
    14      CG2O1      1    LIG    C11     14      0.492     12.011   ;
    15      OG2D1      1    LIG     O2     15     -0.514     15.999   ;
    16      NG2S1      1    LIG     N2     16     -0.457     14.007   ;
    17       HGP1      1    LIG     H2     17      0.305      1.008   ;
    18      CG321      1    LIG    C12     18     -0.033     12.011   ;
    19      CG321      1    LIG    C13     19     -0.184     12.011   ;
    20      CG321      1    LIG    C14     20     -0.178     12.011   ;
    21      CG331      1    LIG    C15     21     -0.270     12.011   ;
    22      OG311      1    LIG     O3     22     -0.648     15.999   ;
    23       HGP1      1    LIG     H3     23      0.421      1.008   ;
    24      CG311      1    LIG    C16     24      0.064     12.011   ;
    25      NG2S1      1    LIG     N3     25     -0.447     14.007   ;
    26      CG2O1      1    LIG    C17     26      0.525     12.011   ;
    27      OG2D1      1    LIG     O4     27     -0.511     15.999   ;
    28       HGP1      1    LIG     H4     28      0.316      1.008   ;
    29      CG311      1    LIG    C18     29      0.074     12.011   ;
    30      CG331      1    LIG    C19     30     -0.270     12.011   ;
    31      NG2S1      1    LIG     N4     31     -0.468     14.007   ;
    32      CG2O1      1    LIG    C20     32      0.508     12.011   ;
    33      OG2D1      1    LIG     O5     33     -0.509     15.999   ;
    34      CG331      1    LIG    C21     34     -0.270     12.011   ;
    35       HGP1      1    LIG     H5     35      0.308      1.008   ;
    36      CG321      1    LIG    C22     36     -0.182     12.011   ;
    37      CG321      1    LIG    C23     37     -0.135     12.011   ;
    38      SG311      1    LIG      S     38     -0.105     32.060   ;
    39      CG331      1    LIG    C24     39     -0.220     12.011   ;
    40       HGA1      1    LIG     H6     40      0.090      1.008   ;
    41       HGA2      1    LIG     H7     41      0.090      1.008   ;
    42       HGA2      1    LIG     H8     42      0.090      1.008   ;
    43       HGA1      1    LIG     H9     43      0.090      1.008   ;
    44       HGA3      1    LIG    H10     44      0.090      1.008   ;
    45       HGA3      1    LIG    H11     45      0.090      1.008   ;
    46       HGA3      1    LIG    H12     46      0.090      1.008   ;
    47       HGA3      1    LIG    H13     47      0.090      1.008   ;
    48       HGA3      1    LIG    H14     48      0.090      1.008   ;
    49       HGA3      1    LIG    H15     49      0.090      1.008   ;
    50       HGA1      1    LIG    H16     50      0.090      1.008   ;
    51       HGA2      1    LIG    H17     51      0.090      1.008   ;
    52       HGA2      1    LIG    H18     52      0.090      1.008   ;
    53       HGA1      1    LIG    H19     53      0.090      1.008   ;
    54       HGA3      1    LIG    H20     54      0.090      1.008   ;
    55       HGA3      1    LIG    H21     55      0.090      1.008   ;
    56       HGA3      1    LIG    H22     56      0.090      1.008   ;
    57       HGA2      1    LIG    H23     57      0.090      1.008   ;
    58       HGA2      1    LIG    H24     58      0.090      1.008   ;
    59       HGA2      1    LIG    H25     59      0.090      1.008   ;
    60       HGA2      1    LIG    H26     60      0.090      1.008   ;
    61       HGA2      1    LIG    H27     61      0.090      1.008   ;
    62       HGA2      1    LIG    H28     62      0.090      1.008   ;
    63       HGA3      1    LIG    H29     63      0.090      1.008   ;
    64       HGA3      1    LIG    H30     64      0.090      1.008   ;
    65       HGA3      1    LIG    H31     65      0.090      1.008   ;
    66       HGA1      1    LIG    H32     66      0.090      1.008   ;
    67       HGA1      1    LIG    H33     67      0.090      1.008   ;
    68       HGA3      1    LIG    H34     68      0.090      1.008   ;
    69       HGA3      1    LIG    H35     69      0.090      1.008   ;
    70       HGA3      1    LIG    H36     70      0.090      1.008   ;
    71       HGA3      1    LIG    H37     71      0.090      1.008   ;
    72       HGA3      1    LIG    H38     72      0.090      1.008   ;
    73       HGA3      1    LIG    H39     73      0.090      1.008   ;
    74       HGA2      1    LIG    H40     74      0.090      1.008   ;
    75       HGA2      1    LIG    H41     75      0.090      1.008   ;
    76       HGA2      1    LIG    H42     76      0.090      1.008   ;
    77       HGA2      1    LIG    H43     77      0.090      1.008   ;
    78       HGA3      1    LIG    H44     78      0.090      1.008   ;
    79       HGA3      1    LIG    H45     79      0.090      1.008   ;
    80       HGA3      1    LIG    H46     80      0.090      1.008   ;

[ bonds ]
;	ai	  aj funct			  c0			c1			  c2			c3
    1     3	 1 ;       CG2O1      NG2S1
    1     2	 1 ;       CG2O1      OG2D1
    1    24	 1 ;       CG2O1      CG311
    3     4	 1 ;       NG2S1       HGP1
    3     5	 1 ;       NG2S1      CG311
    5     6	 1 ;       CG311      CG321
    5    10	 1 ;       CG311      CG311
    5    40	 1 ;       CG311       HGA1
    6     7	 1 ;       CG321      CG311
    6    41	 1 ;       CG321       HGA2
    6    42	 1 ;       CG321       HGA2
    7     9	 1 ;       CG311      CG331
    7     8	 1 ;       CG311      CG331
    7    43	 1 ;       CG311       HGA1
    8    44	 1 ;       CG331       HGA3
    8    45	 1 ;       CG331       HGA3
    8    46	 1 ;       CG331       HGA3
    9    47	 1 ;       CG331       HGA3
    9    48	 1 ;       CG331       HGA3
    9    49	 1 ;       CG331       HGA3
   10    22	 1 ;       CG311      OG311
   10    11	 1 ;       CG311      CG321
   10    50	 1 ;       CG311       HGA1
   11    12	 1 ;       CG321      CG311
   11    51	 1 ;       CG321       HGA2
   11    52	 1 ;       CG321       HGA2
   12    14	 1 ;       CG311      CG2O1
   12    13	 1 ;       CG311      CG331
   12    53	 1 ;       CG311       HGA1
   13    54	 1 ;       CG331       HGA3
   13    55	 1 ;       CG331       HGA3
   13    56	 1 ;       CG331       HGA3
   14    15	 1 ;       CG2O1      OG2D1
   14    16	 1 ;       CG2O1      NG2S1
   16    18	 1 ;       NG2S1      CG321
   16    17	 1 ;       NG2S1       HGP1
   18    19	 1 ;       CG321      CG321
   18    57	 1 ;       CG321       HGA2
   18    58	 1 ;       CG321       HGA2
   19    20	 1 ;       CG321      CG321
   19    59	 1 ;       CG321       HGA2
   19    60	 1 ;       CG321       HGA2
   20    21	 1 ;       CG321      CG331
   20    61	 1 ;       CG321       HGA2
   20    62	 1 ;       CG321       HGA2
   21    63	 1 ;       CG331       HGA3
   21    64	 1 ;       CG331       HGA3
   21    65	 1 ;       CG331       HGA3
   22    23	 1 ;       OG311       HGP1
   24    25	 1 ;       CG311      NG2S1
   24    36	 1 ;       CG311      CG321
   24    66	 1 ;       CG311       HGA1
   25    26	 1 ;       NG2S1      CG2O1
   25    28	 1 ;       NG2S1       HGP1
   26    27	 1 ;       CG2O1      OG2D1
   26    29	 1 ;       CG2O1      CG311
   29    30	 1 ;       CG311      CG331
   29    31	 1 ;       CG311      NG2S1
   29    67	 1 ;       CG311       HGA1
   30    68	 1 ;       CG331       HGA3
   30    69	 1 ;       CG331       HGA3
   30    70	 1 ;       CG331       HGA3
   31    35	 1 ;       NG2S1       HGP1
   31    32	 1 ;       NG2S1      CG2O1
   32    33	 1 ;       CG2O1      OG2D1
   32    34	 1 ;       CG2O1      CG331
   34    71	 1 ;       CG331       HGA3
   34    72	 1 ;       CG331       HGA3
   34    73	 1 ;       CG331       HGA3
   36    37	 1 ;       CG321      CG321
   36    74	 1 ;       CG321       HGA2
   36    75	 1 ;       CG321       HGA2
   37    38	 1 ;       CG321      SG311
   37    76	 1 ;       CG321       HGA2
   37    77	 1 ;       CG321       HGA2
   38    39	 1 ;       SG311      CG331
   39    78	 1 ;       CG331       HGA3
   39    79	 1 ;       CG331       HGA3
   39    80	 1 ;       CG331       HGA3

[ pairs ]
;	ai	  aj funct			  c0			c1			  c2			c3
    1     6	 1
    1    10	 1
    1    40	 1
    1    26	 1
    1    28	 1
    1    37	 1
    1    74	 1
    1    75	 1
    2     4	 1
    2     5	 1
    2    25	 1
    2    36	 1
    2    66	 1
    3    25	 1
    3    36	 1
    3    66	 1
    3     7	 1
    3    41	 1
    3    42	 1
    3    22	 1
    3    11	 1
    3    50	 1
    4    24	 1
    4     6	 1
    4    10	 1
    4    40	 1
    5    24	 1
    5     9	 1
    5     8	 1
    5    43	 1
    5    23	 1
    5    12	 1
    5    51	 1
    5    52	 1
    6    22	 1
    6    11	 1
    6    50	 1
    6    47	 1
    6    48	 1
    6    49	 1
    6    44	 1
    6    45	 1
    6    46	 1
    7    10	 1
    7    40	 1
    8    41	 1
    8    42	 1
    8    47	 1
    8    48	 1
    8    49	 1
    9    41	 1
    9    42	 1
    9    44	 1
    9    45	 1
    9    46	 1
   10    41	 1
   10    42	 1
   10    14	 1
   10    13	 1
   10    53	 1
   11    40	 1
   11    23	 1
   11    15	 1
   11    16	 1
   11    54	 1
   11    55	 1
   11    56	 1
   12    22	 1
   12    50	 1
   12    18	 1
   12    17	 1
   13    51	 1
   13    52	 1
   13    15	 1
   13    16	 1
   14    51	 1
   14    52	 1
   14    54	 1
   14    55	 1
   14    56	 1
   14    19	 1
   14    57	 1
   14    58	 1
   15    53	 1
   15    18	 1
   15    17	 1
   16    53	 1
   16    20	 1
   16    59	 1
   16    60	 1
   17    19	 1
   17    57	 1
   17    58	 1
   18    21	 1
   18    61	 1
   18    62	 1
   19    63	 1
   19    64	 1
   19    65	 1
   20    57	 1
   20    58	 1
   21    59	 1
   21    60	 1
   22    40	 1
   22    51	 1
   22    52	 1
   23    50	 1
   24    27	 1
   24    29	 1
   24    38	 1
   24    76	 1
   24    77	 1
   25    37	 1
   25    74	 1
   25    75	 1
   25    30	 1
   25    31	 1
   25    67	 1
   26    36	 1
   26    66	 1
   26    68	 1
   26    69	 1
   26    70	 1
   26    35	 1
   26    32	 1
   27    28	 1
   27    30	 1
   27    31	 1
   27    67	 1
   28    36	 1
   28    66	 1
   28    29	 1
   29    33	 1
   29    34	 1
   30    35	 1
   30    32	 1
   31    68	 1
   31    69	 1
   31    70	 1
   31    71	 1
   31    72	 1
   31    73	 1
   32    67	 1
   33    35	 1
   33    71	 1
   33    72	 1
   33    73	 1
   34    35	 1
   35    67	 1
   36    39	 1
   37    66	 1
   37    78	 1
   37    79	 1
   37    80	 1
   38    74	 1
   38    75	 1
   39    76	 1
   39    77	 1
   40    41	 1
   40    42	 1
   40    50	 1
   41    43	 1
   42    43	 1
   43    47	 1
   43    48	 1
   43    49	 1
   43    44	 1
   43    45	 1
   43    46	 1
   50    51	 1
   50    52	 1
   51    53	 1
   52    53	 1
   53    54	 1
   53    55	 1
   53    56	 1
   57    59	 1
   57    60	 1
   58    59	 1
   58    60	 1
   59    61	 1
   59    62	 1
   60    61	 1
   60    62	 1
   61    63	 1
   61    64	 1
   61    65	 1
   62    63	 1
   62    64	 1
   62    65	 1
   66    74	 1
   66    75	 1
   67    68	 1
   67    69	 1
   67    70	 1
   74    76	 1
   74    77	 1
   75    76	 1
   75    77	 1

[ angles ]
;	ai	  aj	ak funct			c0			  c1			c2			  c3
    3     1     2	5 ;      NG2S1      CG2O1      OG2D1
    3     1    24	5 ;      NG2S1      CG2O1      CG311
    2     1    24	5 ;      OG2D1      CG2O1      CG311
    4     3     5	5 ;       HGP1      NG2S1      CG311
    4     3     1	5 ;       HGP1      NG2S1      CG2O1
    5     3     1	5 ;      CG311      NG2S1      CG2O1
    6     5     3	5 ;      CG321      CG311      NG2S1
    6     5    10	5 ;      CG321      CG311      CG311
    6     5    40	5 ;      CG321      CG311       HGA1
    3     5    10	5 ;      NG2S1      CG311      CG311
    3     5    40	5 ;      NG2S1      CG311       HGA1
   10     5    40	5 ;      CG311      CG311       HGA1
    7     6     5	5 ;      CG311      CG321      CG311
    7     6    41	5 ;      CG311      CG321       HGA2
    7     6    42	5 ;      CG311      CG321       HGA2
    5     6    41	5 ;      CG311      CG321       HGA2
    5     6    42	5 ;      CG311      CG321       HGA2
   41     6    42	5 ;       HGA2      CG321       HGA2
    9     7     8	5 ;      CG331      CG311      CG331
    9     7     6	5 ;      CG331      CG311      CG321
    9     7    43	5 ;      CG331      CG311       HGA1
    8     7     6	5 ;      CG331      CG311      CG321
    8     7    43	5 ;      CG331      CG311       HGA1
    6     7    43	5 ;      CG321      CG311       HGA1
    7     8    44	5 ;      CG311      CG331       HGA3
    7     8    45	5 ;      CG311      CG331       HGA3
    7     8    46	5 ;      CG311      CG331       HGA3
   44     8    45	5 ;       HGA3      CG331       HGA3
   44     8    46	5 ;       HGA3      CG331       HGA3
   45     8    46	5 ;       HGA3      CG331       HGA3
    7     9    47	5 ;      CG311      CG331       HGA3
    7     9    48	5 ;      CG311      CG331       HGA3
    7     9    49	5 ;      CG311      CG331       HGA3
   47     9    48	5 ;       HGA3      CG331       HGA3
   47     9    49	5 ;       HGA3      CG331       HGA3
   48     9    49	5 ;       HGA3      CG331       HGA3
    5    10    22	5 ;      CG311      CG311      OG311
    5    10    11	5 ;      CG311      CG311      CG321
    5    10    50	5 ;      CG311      CG311       HGA1
   22    10    11	5 ;      OG311      CG311      CG321
   22    10    50	5 ;      OG311      CG311       HGA1
   11    10    50	5 ;      CG321      CG311       HGA1
   10    11    12	5 ;      CG311      CG321      CG311
   10    11    51	5 ;      CG311      CG321       HGA2
   10    11    52	5 ;      CG311      CG321       HGA2
   12    11    51	5 ;      CG311      CG321       HGA2
   12    11    52	5 ;      CG311      CG321       HGA2
   51    11    52	5 ;       HGA2      CG321       HGA2
   11    12    14	5 ;      CG321      CG311      CG2O1
   11    12    13	5 ;      CG321      CG311      CG331
   11    12    53	5 ;      CG321      CG311       HGA1
   14    12    13	5 ;      CG2O1      CG311      CG331
   14    12    53	5 ;      CG2O1      CG311       HGA1
   13    12    53	5 ;      CG331      CG311       HGA1
   12    13    54	5 ;      CG311      CG331       HGA3
   12    13    55	5 ;      CG311      CG331       HGA3
   12    13    56	5 ;      CG311      CG331       HGA3
   54    13    55	5 ;       HGA3      CG331       HGA3
   54    13    56	5 ;       HGA3      CG331       HGA3
   55    13    56	5 ;       HGA3      CG331       HGA3
   15    14    12	5 ;      OG2D1      CG2O1      CG311
   15    14    16	5 ;      OG2D1      CG2O1      NG2S1
   12    14    16	5 ;      CG311      CG2O1      NG2S1
   14    16    18	5 ;      CG2O1      NG2S1      CG321
   14    16    17	5 ;      CG2O1      NG2S1       HGP1
   18    16    17	5 ;      CG321      NG2S1       HGP1
   16    18    19	5 ;      NG2S1      CG321      CG321
   16    18    57	5 ;      NG2S1      CG321       HGA2
   16    18    58	5 ;      NG2S1      CG321       HGA2
   19    18    57	5 ;      CG321      CG321       HGA2
   19    18    58	5 ;      CG321      CG321       HGA2
   57    18    58	5 ;       HGA2      CG321       HGA2
   18    19    20	5 ;      CG321      CG321      CG321
   18    19    59	5 ;      CG321      CG321       HGA2
   18    19    60	5 ;      CG321      CG321       HGA2
   20    19    59	5 ;      CG321      CG321       HGA2
   20    19    60	5 ;      CG321      CG321       HGA2
   59    19    60	5 ;       HGA2      CG321       HGA2
   21    20    19	5 ;      CG331      CG321      CG321
   21    20    61	5 ;      CG331      CG321       HGA2
   21    20    62	5 ;      CG331      CG321       HGA2
   19    20    61	5 ;      CG321      CG321       HGA2
   19    20    62	5 ;      CG321      CG321       HGA2
   61    20    62	5 ;       HGA2      CG321       HGA2
   20    21    63	5 ;      CG321      CG331       HGA3
   20    21    64	5 ;      CG321      CG331       HGA3
   20    21    65	5 ;      CG321      CG331       HGA3
   63    21    64	5 ;       HGA3      CG331       HGA3
   63    21    65	5 ;       HGA3      CG331       HGA3
   64    21    65	5 ;       HGA3      CG331       HGA3
   10    22    23	5 ;      CG311      OG311       HGP1
    1    24    25	5 ;      CG2O1      CG311      NG2S1
    1    24    36	5 ;      CG2O1      CG311      CG321
    1    24    66	5 ;      CG2O1      CG311       HGA1
   25    24    36	5 ;      NG2S1      CG311      CG321
   25    24    66	5 ;      NG2S1      CG311       HGA1
   36    24    66	5 ;      CG321      CG311       HGA1
   24    25    26	5 ;      CG311      NG2S1      CG2O1
   24    25    28	5 ;      CG311      NG2S1       HGP1
   26    25    28	5 ;      CG2O1      NG2S1       HGP1
   27    26    25	5 ;      OG2D1      CG2O1      NG2S1
   27    26    29	5 ;      OG2D1      CG2O1      CG311
   25    26    29	5 ;      NG2S1      CG2O1      CG311
   26    29    30	5 ;      CG2O1      CG311      CG331
   26    29    31	5 ;      CG2O1      CG311      NG2S1
   26    29    67	5 ;      CG2O1      CG311       HGA1
   30    29    31	5 ;      CG331      CG311      NG2S1
   30    29    67	5 ;      CG331      CG311       HGA1
   31    29    67	5 ;      NG2S1      CG311       HGA1
   29    30    68	5 ;      CG311      CG331       HGA3
   29    30    69	5 ;      CG311      CG331       HGA3
   29    30    70	5 ;      CG311      CG331       HGA3
   68    30    69	5 ;       HGA3      CG331       HGA3
   68    30    70	5 ;       HGA3      CG331       HGA3
   69    30    70	5 ;       HGA3      CG331       HGA3
   29    31    35	5 ;      CG311      NG2S1       HGP1
   29    31    32	5 ;      CG311      NG2S1      CG2O1
   35    31    32	5 ;       HGP1      NG2S1      CG2O1
   31    32    33	5 ;      NG2S1      CG2O1      OG2D1
   31    32    34	5 ;      NG2S1      CG2O1      CG331
   33    32    34	5 ;      OG2D1      CG2O1      CG331
   32    34    71	5 ;      CG2O1      CG331       HGA3
   32    34    72	5 ;      CG2O1      CG331       HGA3
   32    34    73	5 ;      CG2O1      CG331       HGA3
   71    34    72	5 ;       HGA3      CG331       HGA3
   71    34    73	5 ;       HGA3      CG331       HGA3
   72    34    73	5 ;       HGA3      CG331       HGA3
   24    36    37	5 ;      CG311      CG321      CG321
   24    36    74	5 ;      CG311      CG321       HGA2
   24    36    75	5 ;      CG311      CG321       HGA2
   37    36    74	5 ;      CG321      CG321       HGA2
   37    36    75	5 ;      CG321      CG321       HGA2
   74    36    75	5 ;       HGA2      CG321       HGA2
   36    37    38	5 ;      CG321      CG321      SG311
   36    37    76	5 ;      CG321      CG321       HGA2
   36    37    77	5 ;      CG321      CG321       HGA2
   38    37    76	5 ;      SG311      CG321       HGA2
   38    37    77	5 ;      SG311      CG321       HGA2
   76    37    77	5 ;       HGA2      CG321       HGA2
   39    38    37	5 ;      CG331      SG311      CG321
   38    39    78	5 ;      SG311      CG331       HGA3
   38    39    79	5 ;      SG311      CG331       HGA3
   38    39    80	5 ;      SG311      CG331       HGA3
   78    39    79	5 ;       HGA3      CG331       HGA3
   78    39    80	5 ;       HGA3      CG331       HGA3
   79    39    80	5 ;       HGA3      CG331       HGA3

[ dihedrals ]
;	ai	  aj	ak	  al funct			  c0			c1			  c2			c3			  c4			c5
    2     1     3     4	 9 ;      OG2D1      CG2O1      NG2S1       HGP1
    2     1     3     5	 9 ;      OG2D1      CG2O1      NG2S1      CG311
   24     1     3     4	 9 ;      CG311      CG2O1      NG2S1       HGP1
   24     1     3     5	 9 ;      CG311      CG2O1      NG2S1      CG311
    3     1    24    25	 9 ;      NG2S1      CG2O1      CG311      NG2S1
    3     1    24    36	 9 ;      NG2S1      CG2O1      CG311      CG321
    3     1    24    66	 9 ;      NG2S1      CG2O1      CG311       HGA1
    2     1    24    25	 9 ;      OG2D1      CG2O1      CG311      NG2S1
    2     1    24    36	 9 ;      OG2D1      CG2O1      CG311      CG321
    2     1    24    66	 9 ;      OG2D1      CG2O1      CG311       HGA1
    4     3     5     6	 9 ;       HGP1      NG2S1      CG311      CG321
    4     3     5    10	 9 ;       HGP1      NG2S1      CG311      CG311
    4     3     5    40	 9 ;       HGP1      NG2S1      CG311       HGA1
    1     3     5     6	 9 ;      CG2O1      NG2S1      CG311      CG321
    1     3     5    10	 9 ;      CG2O1      NG2S1      CG311      CG311
    1     3     5    40	 9 ;      CG2O1      NG2S1      CG311       HGA1
    3     5     6     7	 9 ;      NG2S1      CG311      CG321      CG311
    3     5     6    41	 9 ;      NG2S1      CG311      CG321       HGA2
    3     5     6    42	 9 ;      NG2S1      CG311      CG321       HGA2
   10     5     6     7	 9 ;      CG311      CG311      CG321      CG311
   10     5     6    41	 9 ;      CG311      CG311      CG321       HGA2
   10     5     6    42	 9 ;      CG311      CG311      CG321       HGA2
   40     5     6     7	 9 ;       HGA1      CG311      CG321      CG311
   40     5     6    41	 9 ;       HGA1      CG311      CG321       HGA2
   40     5     6    42	 9 ;       HGA1      CG311      CG321       HGA2
    6     5    10    22	 9 ;      CG321      CG311      CG311      OG311
    6     5    10    11	 9 ;      CG321      CG311      CG311      CG321
    6     5    10    50	 9 ;      CG321      CG311      CG311       HGA1
    3     5    10    22	 9 ;      NG2S1      CG311      CG311      OG311
    3     5    10    11	 9 ;      NG2S1      CG311      CG311      CG321
    3     5    10    50	 9 ;      NG2S1      CG311      CG311       HGA1
   40     5    10    22	 9 ;       HGA1      CG311      CG311      OG311
   40     5    10    11	 9 ;       HGA1      CG311      CG311      CG321
   40     5    10    50	 9 ;       HGA1      CG311      CG311       HGA1
    5     6     7     9	 9 ;      CG311      CG321      CG311      CG331
    5     6     7     8	 9 ;      CG311      CG321      CG311      CG331
    5     6     7    43	 9 ;      CG311      CG321      CG311       HGA1
   41     6     7     9	 9 ;       HGA2      CG321      CG311      CG331
   41     6     7     8	 9 ;       HGA2      CG321      CG311      CG331
   41     6     7    43	 9 ;       HGA2      CG321      CG311       HGA1
   42     6     7     9	 9 ;       HGA2      CG321      CG311      CG331
   42     6     7     8	 9 ;       HGA2      CG321      CG311      CG331
   42     6     7    43	 9 ;       HGA2      CG321      CG311       HGA1
    8     7     9    47	 9 ;      CG331      CG311      CG331       HGA3
    8     7     9    48	 9 ;      CG331      CG311      CG331       HGA3
    8     7     9    49	 9 ;      CG331      CG311      CG331       HGA3
    6     7     9    47	 9 ;      CG321      CG311      CG331       HGA3
    6     7     9    48	 9 ;      CG321      CG311      CG331       HGA3
    6     7     9    49	 9 ;      CG321      CG311      CG331       HGA3
   43     7     9    47	 9 ;       HGA1      CG311      CG331       HGA3
   43     7     9    48	 9 ;       HGA1      CG311      CG331       HGA3
   43     7     9    49	 9 ;       HGA1      CG311      CG331       HGA3
    9     7     8    44	 9 ;      CG331      CG311      CG331       HGA3
    9     7     8    45	 9 ;      CG331      CG311      CG331       HGA3
    9     7     8    46	 9 ;      CG331      CG311      CG331       HGA3
    6     7     8    44	 9 ;      CG321      CG311      CG331       HGA3
    6     7     8    45	 9 ;      CG321      CG311      CG331       HGA3
    6     7     8    46	 9 ;      CG321      CG311      CG331       HGA3
   43     7     8    44	 9 ;       HGA1      CG311      CG331       HGA3
   43     7     8    45	 9 ;       HGA1      CG311      CG331       HGA3
   43     7     8    46	 9 ;       HGA1      CG311      CG331       HGA3
    5    10    22    23	 9 ;      CG311      CG311      OG311       HGP1
   11    10    22    23	 9 ;      CG321      CG311      OG311       HGP1
   50    10    22    23	 9 ;       HGA1      CG311      OG311       HGP1
    5    10    11    12	 9 ;      CG311      CG311      CG321      CG311
    5    10    11    51	 9 ;      CG311      CG311      CG321       HGA2
    5    10    11    52	 9 ;      CG311      CG311      CG321       HGA2
   22    10    11    12	 9 ;      OG311      CG311      CG321      CG311
   22    10    11    51	 9 ;      OG311      CG311      CG321       HGA2
   22    10    11    52	 9 ;      OG311      CG311      CG321       HGA2
   50    10    11    12	 9 ;       HGA1      CG311      CG321      CG311
   50    10    11    51	 9 ;       HGA1      CG311      CG321       HGA2
   50    10    11    52	 9 ;       HGA1      CG311      CG321       HGA2
   10    11    12    14	 9 ;      CG311      CG321      CG311      CG2O1
   10    11    12    13	 9 ;      CG311      CG321      CG311      CG331
   10    11    12    53	 9 ;      CG311      CG321      CG311       HGA1
   51    11    12    14	 9 ;       HGA2      CG321      CG311      CG2O1
   51    11    12    13	 9 ;       HGA2      CG321      CG311      CG331
   51    11    12    53	 9 ;       HGA2      CG321      CG311       HGA1
   52    11    12    14	 9 ;       HGA2      CG321      CG311      CG2O1
   52    11    12    13	 9 ;       HGA2      CG321      CG311      CG331
   52    11    12    53	 9 ;       HGA2      CG321      CG311       HGA1
   11    12    14    15	 9 ;      CG321      CG311      CG2O1      OG2D1
   11    12    14    16	 9 ;      CG321      CG311      CG2O1      NG2S1
   13    12    14    15	 9 ;      CG331      CG311      CG2O1      OG2D1
   13    12    14    16	 9 ;      CG331      CG311      CG2O1      NG2S1
   53    12    14    15	 9 ;       HGA1      CG311      CG2O1      OG2D1
   53    12    14    16	 9 ;       HGA1      CG311      CG2O1      NG2S1
   11    12    13    54	 9 ;      CG321      CG311      CG331       HGA3
   11    12    13    55	 9 ;      CG321      CG311      CG331       HGA3
   11    12    13    56	 9 ;      CG321      CG311      CG331       HGA3
   14    12    13    54	 9 ;      CG2O1      CG311      CG331       HGA3
   14    12    13    55	 9 ;      CG2O1      CG311      CG331       HGA3
   14    12    13    56	 9 ;      CG2O1      CG311      CG331       HGA3
   53    12    13    54	 9 ;       HGA1      CG311      CG331       HGA3
   53    12    13    55	 9 ;       HGA1      CG311      CG331       HGA3
   53    12    13    56	 9 ;       HGA1      CG311      CG331       HGA3
   15    14    16    18	 9 ;      OG2D1      CG2O1      NG2S1      CG321
   15    14    16    17	 9 ;      OG2D1      CG2O1      NG2S1       HGP1
   12    14    16    18	 9 ;      CG311      CG2O1      NG2S1      CG321
   12    14    16    17	 9 ;      CG311      CG2O1      NG2S1       HGP1
   14    16    18    19	 9 ;      CG2O1      NG2S1      CG321      CG321
   14    16    18    57	 9 ;      CG2O1      NG2S1      CG321       HGA2
   14    16    18    58	 9 ;      CG2O1      NG2S1      CG321       HGA2
   17    16    18    19	 9 ;       HGP1      NG2S1      CG321      CG321
   17    16    18    57	 9 ;       HGP1      NG2S1      CG321       HGA2
   17    16    18    58	 9 ;       HGP1      NG2S1      CG321       HGA2
   16    18    19    20	 9 ;      NG2S1      CG321      CG321      CG321
   16    18    19    59	 9 ;      NG2S1      CG321      CG321       HGA2
   16    18    19    60	 9 ;      NG2S1      CG321      CG321       HGA2
   57    18    19    20	 9 ;       HGA2      CG321      CG321      CG321
   57    18    19    59	 9 ;       HGA2      CG321      CG321       HGA2
   57    18    19    60	 9 ;       HGA2      CG321      CG321       HGA2
   58    18    19    20	 9 ;       HGA2      CG321      CG321      CG321
   58    18    19    59	 9 ;       HGA2      CG321      CG321       HGA2
   58    18    19    60	 9 ;       HGA2      CG321      CG321       HGA2
   18    19    20    21	 9 ;      CG321      CG321      CG321      CG331
   18    19    20    61	 9 ;      CG321      CG321      CG321       HGA2
   18    19    20    62	 9 ;      CG321      CG321      CG321       HGA2
   59    19    20    21	 9 ;       HGA2      CG321      CG321      CG331
   59    19    20    61	 9 ;       HGA2      CG321      CG321       HGA2
   59    19    20    62	 9 ;       HGA2      CG321      CG321       HGA2
   60    19    20    21	 9 ;       HGA2      CG321      CG321      CG331
   60    19    20    61	 9 ;       HGA2      CG321      CG321       HGA2
   60    19    20    62	 9 ;       HGA2      CG321      CG321       HGA2
   19    20    21    63	 9 ;      CG321      CG321      CG331       HGA3
   19    20    21    64	 9 ;      CG321      CG321      CG331       HGA3
   19    20    21    65	 9 ;      CG321      CG321      CG331       HGA3
   61    20    21    63	 9 ;       HGA2      CG321      CG331       HGA3
   61    20    21    64	 9 ;       HGA2      CG321      CG331       HGA3
   61    20    21    65	 9 ;       HGA2      CG321      CG331       HGA3
   62    20    21    63	 9 ;       HGA2      CG321      CG331       HGA3
   62    20    21    64	 9 ;       HGA2      CG321      CG331       HGA3
   62    20    21    65	 9 ;       HGA2      CG321      CG331       HGA3
    1    24    25    26	 9 ;      CG2O1      CG311      NG2S1      CG2O1
    1    24    25    28	 9 ;      CG2O1      CG311      NG2S1       HGP1
   36    24    25    26	 9 ;      CG321      CG311      NG2S1      CG2O1
   36    24    25    28	 9 ;      CG321      CG311      NG2S1       HGP1
   66    24    25    26	 9 ;       HGA1      CG311      NG2S1      CG2O1
   66    24    25    28	 9 ;       HGA1      CG311      NG2S1       HGP1
    1    24    36    37	 9 ;      CG2O1      CG311      CG321      CG321
    1    24    36    74	 9 ;      CG2O1      CG311      CG321       HGA2
    1    24    36    75	 9 ;      CG2O1      CG311      CG321       HGA2
   25    24    36    37	 9 ;      NG2S1      CG311      CG321      CG321
   25    24    36    74	 9 ;      NG2S1      CG311      CG321       HGA2
   25    24    36    75	 9 ;      NG2S1      CG311      CG321       HGA2
   66    24    36    37	 9 ;       HGA1      CG311      CG321      CG321
   66    24    36    74	 9 ;       HGA1      CG311      CG321       HGA2
   66    24    36    75	 9 ;       HGA1      CG311      CG321       HGA2
   24    25    26    27	 9 ;      CG311      NG2S1      CG2O1      OG2D1
   24    25    26    29	 9 ;      CG311      NG2S1      CG2O1      CG311
   28    25    26    27	 9 ;       HGP1      NG2S1      CG2O1      OG2D1
   28    25    26    29	 9 ;       HGP1      NG2S1      CG2O1      CG311
   27    26    29    30	 9 ;      OG2D1      CG2O1      CG311      CG331
   27    26    29    31	 9 ;      OG2D1      CG2O1      CG311      NG2S1
   27    26    29    67	 9 ;      OG2D1      CG2O1      CG311       HGA1
   25    26    29    30	 9 ;      NG2S1      CG2O1      CG311      CG331
   25    26    29    31	 9 ;      NG2S1      CG2O1      CG311      NG2S1
   25    26    29    67	 9 ;      NG2S1      CG2O1      CG311       HGA1
   26    29    30    68	 9 ;      CG2O1      CG311      CG331       HGA3
   26    29    30    69	 9 ;      CG2O1      CG311      CG331       HGA3
   26    29    30    70	 9 ;      CG2O1      CG311      CG331       HGA3
   31    29    30    68	 9 ;      NG2S1      CG311      CG331       HGA3
   31    29    30    69	 9 ;      NG2S1      CG311      CG331       HGA3
   31    29    30    70	 9 ;      NG2S1      CG311      CG331       HGA3
   67    29    30    68	 9 ;       HGA1      CG311      CG331       HGA3
   67    29    30    69	 9 ;       HGA1      CG311      CG331       HGA3
   67    29    30    70	 9 ;       HGA1      CG311      CG331       HGA3
   26    29    31    35	 9 ;      CG2O1      CG311      NG2S1       HGP1
   26    29    31    32	 9 ;      CG2O1      CG311      NG2S1      CG2O1
   30    29    31    35	 9 ;      CG331      CG311      NG2S1       HGP1
   30    29    31    32	 9 ;      CG331      CG311      NG2S1      CG2O1
   67    29    31    35	 9 ;       HGA1      CG311      NG2S1       HGP1
   67    29    31    32	 9 ;       HGA1      CG311      NG2S1      CG2O1
   29    31    32    33	 9 ;      CG311      NG2S1      CG2O1      OG2D1
   29    31    32    34	 9 ;      CG311      NG2S1      CG2O1      CG331
   35    31    32    33	 9 ;       HGP1      NG2S1      CG2O1      OG2D1
   35    31    32    34	 9 ;       HGP1      NG2S1      CG2O1      CG331
   31    32    34    71	 9 ;      NG2S1      CG2O1      CG331       HGA3
   31    32    34    72	 9 ;      NG2S1      CG2O1      CG331       HGA3
   31    32    34    73	 9 ;      NG2S1      CG2O1      CG331       HGA3
   33    32    34    71	 9 ;      OG2D1      CG2O1      CG331       HGA3
   33    32    34    72	 9 ;      OG2D1      CG2O1      CG331       HGA3
   33    32    34    73	 9 ;      OG2D1      CG2O1      CG331       HGA3
   24    36    37    38	 9 ;      CG311      CG321      CG321      SG311
   24    36    37    76	 9 ;      CG311      CG321      CG321       HGA2
   24    36    37    77	 9 ;      CG311      CG321      CG321       HGA2
   74    36    37    38	 9 ;       HGA2      CG321      CG321      SG311
   74    36    37    76	 9 ;       HGA2      CG321      CG321       HGA2
   74    36    37    77	 9 ;       HGA2      CG321      CG321       HGA2
   75    36    37    38	 9 ;       HGA2      CG321      CG321      SG311
   75    36    37    76	 9 ;       HGA2      CG321      CG321       HGA2
   75    36    37    77	 9 ;       HGA2      CG321      CG321       HGA2
   36    37    38    39	 9 ;      CG321      CG321      SG311      CG331
   76    37    38    39	 9 ;       HGA2      CG321      SG311      CG331
   77    37    38    39	 9 ;       HGA2      CG321      SG311      CG331
   37    38    39    78	 9 ;      CG321      SG311      CG331       HGA3
   37    38    39    79	 9 ;      CG321      SG311      CG331       HGA3
   37    38    39    80	 9 ;      CG321      SG311      CG331       HGA3

[ dihedrals ]
;	ai	  aj	ak	  al funct			  c0			c1			  c2			c3
    1    24     3     2	 2
   14    12    16    15	 2
   26    29    25    27	 2
   32    34    31    33	 2

