GRowing Old MAkes el Chrono Sweat
   80
    1LIG     C1    1  -1.570   0.753  -1.841
    1LIG     O1    2  -1.597   0.871  -1.868
    1LIG     N1    3  -1.449   0.712  -1.893
    1LIG     H1    4  -1.405   0.799  -1.921
    1LIG     C2    5  -1.343   0.597  -1.900
    1LIG     C3    6  -1.267   0.582  -2.039
    1LIG     C4    7  -1.260   0.703  -2.139
    1LIG     C5    8  -1.116   0.747  -2.172
    1LIG     C6    9  -1.334   0.669  -2.271
    1LIG     C7   10  -1.233   0.621  -1.787
    1LIG     C8   11  -1.135   0.503  -1.752
    1LIG     C9   12  -1.177   0.402  -1.643
    1LIG    C10   13  -1.056   0.372  -1.553
    1LIG    C11   14  -1.224   0.269  -1.704
    1LIG     O2   15  -1.271   0.266  -1.817
    1LIG     N2   16  -1.202   0.158  -1.626
    1LIG     H2   17  -1.164   0.168  -1.533
    1LIG    C12   18  -1.214   0.023  -1.681
    1LIG    C13   19  -1.123  -0.082  -1.617
    1LIG    C14   20  -0.974  -0.050  -1.612
    1LIG    C15   21  -0.913  -0.003  -1.743
    1LIG     O3   22  -1.161   0.740  -1.816
    1LIG     H3   23  -1.205   0.816  -1.770
    1LIG    C16   24  -1.678   0.667  -1.758
    1LIG     N3   25  -1.628   0.555  -1.663
    1LIG    C17   26  -1.596   0.424  -1.673
    1LIG     O4   27  -1.593   0.361  -1.779
    1LIG     H4   28  -1.647   0.576  -1.566
    1LIG    C18   29  -1.555   0.358  -1.535
    1LIG    C19   30  -1.551   0.204  -1.536
    1LIG     N4   31  -1.639   0.412  -1.427
    1LIG    C20   32  -1.595   0.445  -1.301
    1LIG     O5   33  -1.478   0.440  -1.266
    1LIG    C21   34  -1.705   0.489  -1.208
    1LIG     H5   35  -1.739   0.396  -1.437
    1LIG    C22   36  -1.740   0.753  -1.648
    1LIG    C23   37  -1.663   0.776  -1.525
    1LIG      S   38  -1.619   0.952  -1.505
    1LIG    C24   39  -1.764   1.027  -1.585
    1LIG     H6   40  -1.400   0.508  -1.885
    1LIG     H7   41  -1.166   0.555  -2.016
    1LIG     H8   42  -1.327   0.510  -2.091
    1LIG     H9   43  -1.307   0.785  -2.089
    1LIG    H10   44  -1.065   0.667  -2.222
    1LIG    H11   45  -1.065   0.771  -2.081
    1LIG    H12   46  -1.119   0.833  -2.235
    1LIG    H13   47  -1.285   0.587  -2.319
    1LIG    H14   48  -1.333   0.754  -2.335
    1LIG    H15   49  -1.435   0.642  -2.249
    1LIG    H16   50  -1.290   0.627  -1.697
    1LIG    H17   51  -1.043   0.548  -1.721
    1LIG    H18   52  -1.131   0.445  -1.842
    1LIG    H19   53  -1.258   0.446  -1.588
    1LIG    H20   54  -0.978   0.329  -1.611
    1LIG    H21   55  -1.086   0.304  -1.476
    1LIG    H22   56  -1.021   0.463  -1.508
    1LIG    H23   57  -1.191   0.028  -1.785
    1LIG    H24   58  -1.314  -0.008  -1.660
    1LIG    H25   59  -1.135  -0.172  -1.673
    1LIG    H26   60  -1.154  -0.087  -1.515
    1LIG    H27   61  -0.958   0.026  -1.539
    1LIG    H28   62  -0.924  -0.142  -1.589
    1LIG    H29   63  -0.959   0.090  -1.772
    1LIG    H30   64  -0.930  -0.076  -1.819
    1LIG    H31   65  -0.808   0.012  -1.731
    1LIG    H32   66  -1.736   0.629  -1.839
    1LIG    H33   67  -1.453   0.385  -1.518
    1LIG    H34   68  -1.650   0.166  -1.552
    1LIG    H35   69  -1.515   0.169  -1.441
    1LIG    H36   70  -1.486   0.170  -1.613
    1LIG    H37   71  -1.799   0.487  -1.260
    1LIG    H38   72  -1.686   0.589  -1.174
    1LIG    H39   73  -1.709   0.424  -1.124
    1LIG    H40   74  -1.832   0.706  -1.620
    1LIG    H41   75  -1.750   0.850  -1.693
    1LIG    H42   76  -1.573   0.719  -1.528
    1LIG    H43   77  -1.724   0.748  -1.441
    1LIG    H44   78  -1.755   1.134  -1.582
    1LIG    H45   79  -1.853   0.998  -1.533
    1LIG    H46   80  -1.770   0.995  -1.686
   0.00000   0.00000   0.00000
