Guyana Rwanda Oman Macau Angola Cameroon Senegal
   57
    1LIG     C1    1  -1.396   0.626  -1.858
    1LIG     C2    2  -1.492   0.611  -1.742
    1LIG     C3    3  -1.478   0.463  -1.698
    1LIG     N1    4  -1.432   0.392  -1.822
    1LIG    HN3    5  -1.433   0.291  -1.837
    1LIG     C4    6  -1.390   0.482  -1.904
    1LIG     C5    7  -1.379   0.446  -1.580
    1LIG     C6    8  -1.336   0.317  -1.543
    1LIG     C7    9  -1.231   0.294  -1.451
    1LIG     C8   10  -1.175   0.406  -1.390
    1LIG     C9   11  -1.219   0.535  -1.421
    1LIG    C10   12  -1.319   0.555  -1.517
    1LIG    C11   13  -1.179   0.157  -1.430
    1LIG    C12   14  -1.217   0.080  -1.318
    1LIG    C13   15  -1.169  -0.049  -1.299
    1LIG    C14   16  -1.084  -0.101  -1.395
    1LIG     N2   17  -1.044  -0.033  -1.504
    1LIG    C15   18  -1.092   0.093  -1.518
    1LIG    HN4   19  -0.980  -0.075  -1.572
    1LIG    C16   20  -1.615   0.404  -1.654
    1LIG    C17   21  -1.676   0.303  -1.731
    1LIG    C18   22  -1.798   0.246  -1.693
    1LIG    C19   23  -1.862   0.289  -1.577
    1LIG    C20   24  -1.801   0.387  -1.498
    1LIG    C21   25  -1.680   0.444  -1.536
    1LIG     O1   26  -1.981   0.242  -1.529
    1LIG    C22   27  -2.019   0.287  -1.399
    1LIG     O2   28  -1.266   0.671  -1.822
    1LIG    C23   29  -1.262   0.811  -1.796
    1LIG     N3   30  -1.342   0.450  -2.028
    1LIG     H1   31  -1.415   0.446  -2.098
    1LIG     H2   32  -1.280   0.370  -2.030
    1LIG     HC   33  -1.439   0.690  -1.936
    1LIG    HC2   34  -1.465   0.678  -1.661
    1LIG    HC3   35  -1.594   0.630  -1.775
    1LIG    HN2   36  -1.525   0.399  -1.860
    1LIG    HC1   37  -1.491   0.491  -1.946
    1LIG    HC4   38  -1.386   0.231  -1.586
    1LIG    HC5   39  -1.096   0.393  -1.317
    1LIG    HC6   40  -1.176   0.620  -1.370
    1LIG    HC7   41  -1.350   0.655  -1.542
    1LIG    HC8   42  -1.285   0.123  -1.245
    1LIG    HC9   43  -1.198  -0.107  -1.213
    1LIG   HC10   44  -1.047  -0.202  -1.381
    1LIG   HC11   45  -1.061   0.148  -1.606
    1LIG   HC12   46  -1.627   0.269  -1.821
    1LIG   HC13   47  -1.843   0.169  -1.754
    1LIG   HC14   48  -1.850   0.419  -1.407
    1LIG   HC15   49  -1.635   0.519  -1.474
    1LIG   HC16   50  -2.109   0.234  -1.367
    1LIG   HC17   51  -1.939   0.268  -1.329
    1LIG   HC18   52  -2.040   0.394  -1.403
    1LIG   HC19   53  -1.161   0.840  -1.769
    1LIG   HC20   54  -1.293   0.865  -1.885
    1LIG   HC21   55  -1.330   0.834  -1.714
    1LIG    HN1   56  -1.284   0.528  -2.054
    1LIG    H29   57  -1.169  -0.140  -1.450
   0.00000   0.00000   0.00000
