; Created by cgenff_charmm2gmx.py

[ moleculetype ]
; Name			   nrexcl
LIG				 3

[ atoms ]
;	 nr		  type	resnr residue  atom   cgnr	   charge		mass  typeB    chargeB		massB
; residue	 1 LIG rtp LIG q	qsum
     1     CG3C51      1    LIG     C1      1      0.180     12.011   ;
     2     CG3C52      1    LIG     C2      2     -0.189     12.011   ;
     3     CG3C50      1    LIG     C3      3      1.185     12.011   ;
     4      NG3P2      1    LIG     N1      4     -0.778     14.007   ;
     5       HGP2      1    LIG    HN3      5      0.338      1.008   ;
     6     CG3C53      1    LIG     C4      6      0.702     12.011   ;
     7     CG2R61      1    LIG     C5      7     -0.284     12.011   ;
     8     CG2R61      1    LIG     C6      8     -0.131     12.011   ;
     9     CG2R61      1    LIG     C7      9     -0.139     12.011   ;
    10     CG2R61      1    LIG     C8     10     -0.117     12.011   ;
    11     CG2R61      1    LIG     C9     11     -0.102     12.011   ;
    12     CG2R61      1    LIG    C10     12     -0.130     12.011   ;
    13     CG2DC1      1    LIG    C11     13      0.175     12.011   ;
    14     CG2DC2      1    LIG    C12     14     -0.254     12.011   ;
    15     CG2DC2      1    LIG    C13     15     -0.181     12.011   ;
    16      CG321      1    LIG    C14     16     -0.038     12.011   ;
    17      NG311      1    LIG     N2     17     -0.536     14.007   ;
    18     CG2D1O      1    LIG    C15     18     -0.044     12.011   ;
    19     HGPAM1      1    LIG    HN4     19      0.389      1.008   ;
    20     CG2R61      1    LIG    C16     20     -0.287     12.011   ;
    21     CG2R61      1    LIG    C17     21     -0.127     12.011   ;
    22     CG2R61      1    LIG    C18     22     -0.110     12.011   ;
    23     CG2R61      1    LIG    C19     23      0.211     12.011   ;
    24     CG2R61      1    LIG    C20     24     -0.110     12.011   ;
    25     CG2R61      1    LIG    C21     25     -0.127     12.011   ;
    26      OG301      1    LIG     O1     26     -0.383     15.999   ;
    27      CG331      1    LIG    C22     27     -0.094     12.011   ;
    28      OG301      1    LIG     O2     28     -0.328     15.999   ;
    29      CG331      1    LIG    C23     29     -0.097     12.011   ;
    30      NG3P3      1    LIG     N3     30     -0.316     14.007   ;
    31       HGP2      1    LIG     H1     31      0.307      1.008   ;
    32       HGP2      1    LIG     H2     32      0.307      1.008   ;
    33       HGA1      1    LIG     HC     33      0.090      1.008   ;
    34       HGA2      1    LIG    HC2     34      0.090      1.008   ;
    35       HGA2      1    LIG    HC3     35      0.090      1.008   ;
    36       HGP2      1    LIG    HN2     36      0.338      1.008   ;
    37       HGA1      1    LIG    HC1     37      0.090      1.008   ;
    38      HGR61      1    LIG    HC4     38      0.116      1.008   ;
    39      HGR61      1    LIG    HC5     39      0.116      1.008   ;
    40      HGR61      1    LIG    HC6     40      0.116      1.008   ;
    41      HGR61      1    LIG    HC7     41      0.116      1.008   ;
    42       HGA4      1    LIG    HC8     42      0.153      1.008   ;
    43       HGA4      1    LIG    HC9     43      0.150      1.008   ;
    44       HGA2      1    LIG   HC10     44      0.090      1.008   ;
    45       HGA4      1    LIG   HC11     45      0.152      1.008   ;
    46      HGR61      1    LIG   HC12     46      0.116      1.008   ;
    47      HGR61      1    LIG   HC13     47      0.116      1.008   ;
    48      HGR61      1    LIG   HC14     48      0.116      1.008   ;
    49      HGR61      1    LIG   HC15     49      0.116      1.008   ;
    50       HGA3      1    LIG   HC16     50      0.090      1.008   ;
    51       HGA3      1    LIG   HC17     51      0.090      1.008   ;
    52       HGA3      1    LIG   HC18     52      0.090      1.008   ;
    53       HGA3      1    LIG   HC19     53      0.090      1.008   ;
    54       HGA3      1    LIG   HC20     54      0.090      1.008   ;
    55       HGA3      1    LIG   HC21     55      0.090      1.008   ;
    56       HGP2      1    LIG    HN1     56      0.307      1.008   ;
    57       HGA2      1    LIG    H29     57      0.090      1.008   ;

[ bonds ]
;	ai	  aj funct			  c0			c1			  c2			c3
    1    28	 1 ;      CG3C51      OG301
    1     6	 1 ;      CG3C51     CG3C53
    1     2	 1 ;      CG3C51     CG3C52
    1    33	 1 ;      CG3C51       HGA1
    2     3	 1 ;      CG3C52     CG3C50
    2    34	 1 ;      CG3C52       HGA2
    2    35	 1 ;      CG3C52       HGA2
    3     4	 1 ;      CG3C50      NG3P2
    3     7	 1 ;      CG3C50     CG2R61
    3    20	 1 ;      CG3C50     CG2R61
    4     6	 1 ;       NG3P2     CG3C53
    4     5	 1 ;       NG3P2       HGP2
    4    36	 1 ;       NG3P2       HGP2
    6    30	 1 ;      CG3C53      NG3P3
    6    37	 1 ;      CG3C53       HGA1
    7    12	 1 ;      CG2R61     CG2R61
    7     8	 1 ;      CG2R61     CG2R61
    8     9	 1 ;      CG2R61     CG2R61
    8    38	 1 ;      CG2R61      HGR61
    9    10	 1 ;      CG2R61     CG2R61
    9    13	 1 ;      CG2R61     CG2DC1
   10    11	 1 ;      CG2R61     CG2R61
   10    39	 1 ;      CG2R61      HGR61
   11    12	 1 ;      CG2R61     CG2R61
   11    40	 1 ;      CG2R61      HGR61
   12    41	 1 ;      CG2R61      HGR61
   13    18	 1 ;      CG2DC1     CG2D1O
   13    14	 1 ;      CG2DC1     CG2DC2
   14    15	 1 ;      CG2DC2     CG2DC2
   14    42	 1 ;      CG2DC2       HGA4
   15    16	 1 ;      CG2DC2      CG321
   15    43	 1 ;      CG2DC2       HGA4
   16    17	 1 ;       CG321      NG311
   16    44	 1 ;       CG321       HGA2
   16    57	 1 ;       CG321       HGA2
   17    19	 1 ;       NG311     HGPAM1
   17    18	 1 ;       NG311     CG2D1O
   18    45	 1 ;      CG2D1O       HGA4
   20    21	 1 ;      CG2R61     CG2R61
   20    25	 1 ;      CG2R61     CG2R61
   21    22	 1 ;      CG2R61     CG2R61
   21    46	 1 ;      CG2R61      HGR61
   22    23	 1 ;      CG2R61     CG2R61
   22    47	 1 ;      CG2R61      HGR61
   23    24	 1 ;      CG2R61     CG2R61
   23    26	 1 ;      CG2R61      OG301
   24    25	 1 ;      CG2R61     CG2R61
   24    48	 1 ;      CG2R61      HGR61
   25    49	 1 ;      CG2R61      HGR61
   26    27	 1 ;       OG301      CG331
   27    50	 1 ;       CG331       HGA3
   27    51	 1 ;       CG331       HGA3
   27    52	 1 ;       CG331       HGA3
   28    29	 1 ;       OG301      CG331
   29    53	 1 ;       CG331       HGA3
   29    54	 1 ;       CG331       HGA3
   29    55	 1 ;       CG331       HGA3
   30    32	 1 ;       NG3P3       HGP2
   30    31	 1 ;       NG3P3       HGP2
   30    56	 1 ;       NG3P3       HGP2

[ pairs ]
;	ai	  aj funct			  c0			c1			  c2			c3
    1     7	 1
    1    20	 1
    1     5	 1
    1    36	 1
    1    32	 1
    1    31	 1
    1    56	 1
    1    53	 1
    1    54	 1
    1    55	 1
    2    29	 1
    2    30	 1
    2    37	 1
    2     5	 1
    2    36	 1
    2    12	 1
    2     8	 1
    2    21	 1
    2    25	 1
    3    28	 1
    3    33	 1
    3    30	 1
    3    37	 1
    3    11	 1
    3    41	 1
    3     9	 1
    3    38	 1
    3    22	 1
    3    46	 1
    3    24	 1
    3    49	 1
    4    28	 1
    4    33	 1
    4    34	 1
    4    35	 1
    4    12	 1
    4     8	 1
    4    21	 1
    4    25	 1
    4    32	 1
    4    31	 1
    4    56	 1
    5     7	 1
    5    20	 1
    5    30	 1
    5    37	 1
    6    29	 1
    6    34	 1
    6    35	 1
    6     7	 1
    6    20	 1
    7    34	 1
    7    35	 1
    7    36	 1
    7    21	 1
    7    25	 1
    7    10	 1
    7    13	 1
    7    40	 1
    8    20	 1
    8    11	 1
    8    41	 1
    8    39	 1
    8    18	 1
    8    14	 1
    9    12	 1
    9    40	 1
    9    17	 1
    9    45	 1
    9    15	 1
    9    42	 1
   10    38	 1
   10    18	 1
   10    14	 1
   10    41	 1
   11    13	 1
   12    20	 1
   12    38	 1
   12    39	 1
   13    38	 1
   13    39	 1
   13    16	 1
   13    43	 1
   13    19	 1
   14    17	 1
   14    45	 1
   14    44	 1
   14    57	 1
   15    18	 1
   15    19	 1
   16    42	 1
   16    45	 1
   17    43	 1
   18    42	 1
   18    44	 1
   18    57	 1
   19    44	 1
   19    57	 1
   19    45	 1
   20    34	 1
   20    35	 1
   20    36	 1
   20    23	 1
   20    47	 1
   20    48	 1
   21    24	 1
   21    49	 1
   21    26	 1
   22    25	 1
   22    48	 1
   22    27	 1
   23    46	 1
   23    49	 1
   23    50	 1
   23    51	 1
   23    52	 1
   24    47	 1
   24    27	 1
   25    46	 1
   25    26	 1
   26    47	 1
   26    48	 1
   28    30	 1
   28    37	 1
   28    34	 1
   28    35	 1
   29    33	 1
   30    33	 1
   30    36	 1
   31    37	 1
   32    37	 1
   33    37	 1
   33    34	 1
   33    35	 1
   36    37	 1
   37    56	 1
   39    40	 1
   40    41	 1
   42    43	 1
   43    44	 1
   43    57	 1
   46    47	 1
   48    49	 1

[ angles ]
;	ai	  aj	ak funct			c0			  c1			c2			  c3
   28     1     6	5 ;      OG301     CG3C51     CG3C53
   28     1     2	5 ;      OG301     CG3C51     CG3C52
   28     1    33	5 ;      OG301     CG3C51       HGA1
    6     1     2	5 ;     CG3C53     CG3C51     CG3C52
    6     1    33	5 ;     CG3C53     CG3C51       HGA1
    2     1    33	5 ;     CG3C52     CG3C51       HGA1
    1     2     3	5 ;     CG3C51     CG3C52     CG3C50
    1     2    34	5 ;     CG3C51     CG3C52       HGA2
    1     2    35	5 ;     CG3C51     CG3C52       HGA2
    3     2    34	5 ;     CG3C50     CG3C52       HGA2
    3     2    35	5 ;     CG3C50     CG3C52       HGA2
   34     2    35	5 ;       HGA2     CG3C52       HGA2
    4     3     2	5 ;      NG3P2     CG3C50     CG3C52
    4     3     7	5 ;      NG3P2     CG3C50     CG2R61
    4     3    20	5 ;      NG3P2     CG3C50     CG2R61
    2     3     7	5 ;     CG3C52     CG3C50     CG2R61
    2     3    20	5 ;     CG3C52     CG3C50     CG2R61
    7     3    20	5 ;     CG2R61     CG3C50     CG2R61
    6     4     5	5 ;     CG3C53      NG3P2       HGP2
    6     4     3	5 ;     CG3C53      NG3P2     CG3C50
    6     4    36	5 ;     CG3C53      NG3P2       HGP2
    5     4     3	5 ;       HGP2      NG3P2     CG3C50
    5     4    36	5 ;       HGP2      NG3P2       HGP2
    3     4    36	5 ;     CG3C50      NG3P2       HGP2
   30     6     1	5 ;      NG3P3     CG3C53     CG3C51
   30     6     4	5 ;      NG3P3     CG3C53      NG3P2
   30     6    37	5 ;      NG3P3     CG3C53       HGA1
    1     6     4	5 ;     CG3C51     CG3C53      NG3P2
    1     6    37	5 ;     CG3C51     CG3C53       HGA1
    4     6    37	5 ;      NG3P2     CG3C53       HGA1
   12     7     3	5 ;     CG2R61     CG2R61     CG3C50
   12     7     8	5 ;     CG2R61     CG2R61     CG2R61
    3     7     8	5 ;     CG3C50     CG2R61     CG2R61
    9     8     7	5 ;     CG2R61     CG2R61     CG2R61
    9     8    38	5 ;     CG2R61     CG2R61      HGR61
    7     8    38	5 ;     CG2R61     CG2R61      HGR61
   10     9    13	5 ;     CG2R61     CG2R61     CG2DC1
   10     9     8	5 ;     CG2R61     CG2R61     CG2R61
   13     9     8	5 ;     CG2DC1     CG2R61     CG2R61
   11    10     9	5 ;     CG2R61     CG2R61     CG2R61
   11    10    39	5 ;     CG2R61     CG2R61      HGR61
    9    10    39	5 ;     CG2R61     CG2R61      HGR61
   10    11    12	5 ;     CG2R61     CG2R61     CG2R61
   10    11    40	5 ;     CG2R61     CG2R61      HGR61
   12    11    40	5 ;     CG2R61     CG2R61      HGR61
   11    12     7	5 ;     CG2R61     CG2R61     CG2R61
   11    12    41	5 ;     CG2R61     CG2R61      HGR61
    7    12    41	5 ;     CG2R61     CG2R61      HGR61
   18    13     9	5 ;     CG2D1O     CG2DC1     CG2R61
   18    13    14	5 ;     CG2D1O     CG2DC1     CG2DC2
    9    13    14	5 ;     CG2R61     CG2DC1     CG2DC2
   13    14    15	5 ;     CG2DC1     CG2DC2     CG2DC2
   13    14    42	5 ;     CG2DC1     CG2DC2       HGA4
   15    14    42	5 ;     CG2DC2     CG2DC2       HGA4
   16    15    14	5 ;      CG321     CG2DC2     CG2DC2
   16    15    43	5 ;      CG321     CG2DC2       HGA4
   14    15    43	5 ;     CG2DC2     CG2DC2       HGA4
   17    16    15	5 ;      NG311      CG321     CG2DC2
   17    16    44	5 ;      NG311      CG321       HGA2
   17    16    57	5 ;      NG311      CG321       HGA2
   15    16    44	5 ;     CG2DC2      CG321       HGA2
   15    16    57	5 ;     CG2DC2      CG321       HGA2
   44    16    57	5 ;       HGA2      CG321       HGA2
   19    17    18	5 ;     HGPAM1      NG311     CG2D1O
   19    17    16	5 ;     HGPAM1      NG311      CG321
   18    17    16	5 ;     CG2D1O      NG311      CG321
   17    18    13	5 ;      NG311     CG2D1O     CG2DC1
   17    18    45	5 ;      NG311     CG2D1O       HGA4
   13    18    45	5 ;     CG2DC1     CG2D1O       HGA4
    3    20    21	5 ;     CG3C50     CG2R61     CG2R61
    3    20    25	5 ;     CG3C50     CG2R61     CG2R61
   21    20    25	5 ;     CG2R61     CG2R61     CG2R61
   20    21    22	5 ;     CG2R61     CG2R61     CG2R61
   20    21    46	5 ;     CG2R61     CG2R61      HGR61
   22    21    46	5 ;     CG2R61     CG2R61      HGR61
   21    22    23	5 ;     CG2R61     CG2R61     CG2R61
   21    22    47	5 ;     CG2R61     CG2R61      HGR61
   23    22    47	5 ;     CG2R61     CG2R61      HGR61
   22    23    24	5 ;     CG2R61     CG2R61     CG2R61
   22    23    26	5 ;     CG2R61     CG2R61      OG301
   24    23    26	5 ;     CG2R61     CG2R61      OG301
   25    24    23	5 ;     CG2R61     CG2R61     CG2R61
   25    24    48	5 ;     CG2R61     CG2R61      HGR61
   23    24    48	5 ;     CG2R61     CG2R61      HGR61
   20    25    24	5 ;     CG2R61     CG2R61     CG2R61
   20    25    49	5 ;     CG2R61     CG2R61      HGR61
   24    25    49	5 ;     CG2R61     CG2R61      HGR61
   23    26    27	5 ;     CG2R61      OG301      CG331
   26    27    50	5 ;      OG301      CG331       HGA3
   26    27    51	5 ;      OG301      CG331       HGA3
   26    27    52	5 ;      OG301      CG331       HGA3
   50    27    51	5 ;       HGA3      CG331       HGA3
   50    27    52	5 ;       HGA3      CG331       HGA3
   51    27    52	5 ;       HGA3      CG331       HGA3
   29    28     1	5 ;      CG331      OG301     CG3C51
   28    29    53	5 ;      OG301      CG331       HGA3
   28    29    54	5 ;      OG301      CG331       HGA3
   28    29    55	5 ;      OG301      CG331       HGA3
   53    29    54	5 ;       HGA3      CG331       HGA3
   53    29    55	5 ;       HGA3      CG331       HGA3
   54    29    55	5 ;       HGA3      CG331       HGA3
   32    30    31	5 ;       HGP2      NG3P3       HGP2
   32    30     6	5 ;       HGP2      NG3P3     CG3C53
   32    30    56	5 ;       HGP2      NG3P3       HGP2
   31    30     6	5 ;       HGP2      NG3P3     CG3C53
   31    30    56	5 ;       HGP2      NG3P3       HGP2
    6    30    56	5 ;     CG3C53      NG3P3       HGP2

[ dihedrals ]
;	ai	  aj	ak	  al funct			  c0			c1			  c2			c3			  c4			c5
    6     1    28    29	 9 ;     CG3C53     CG3C51      OG301      CG331
    2     1    28    29	 9 ;     CG3C52     CG3C51      OG301      CG331
   33     1    28    29	 9 ;       HGA1     CG3C51      OG301      CG331
   28     1     6    30	 9 ;      OG301     CG3C51     CG3C53      NG3P3
   28     1     6     4	 9 ;      OG301     CG3C51     CG3C53      NG3P2
   28     1     6    37	 9 ;      OG301     CG3C51     CG3C53       HGA1
    2     1     6    30	 9 ;     CG3C52     CG3C51     CG3C53      NG3P3
    2     1     6     4	 9 ;     CG3C52     CG3C51     CG3C53      NG3P2
    2     1     6    37	 9 ;     CG3C52     CG3C51     CG3C53       HGA1
   33     1     6    30	 9 ;       HGA1     CG3C51     CG3C53      NG3P3
   33     1     6     4	 9 ;       HGA1     CG3C51     CG3C53      NG3P2
   33     1     6    37	 9 ;       HGA1     CG3C51     CG3C53       HGA1
   28     1     2     3	 9 ;      OG301     CG3C51     CG3C52     CG3C50
   28     1     2    34	 9 ;      OG301     CG3C51     CG3C52       HGA2
   28     1     2    35	 9 ;      OG301     CG3C51     CG3C52       HGA2
    6     1     2     3	 9 ;     CG3C53     CG3C51     CG3C52     CG3C50
    6     1     2    34	 9 ;     CG3C53     CG3C51     CG3C52       HGA2
    6     1     2    35	 9 ;     CG3C53     CG3C51     CG3C52       HGA2
   33     1     2     3	 9 ;       HGA1     CG3C51     CG3C52     CG3C50
   33     1     2    34	 9 ;       HGA1     CG3C51     CG3C52       HGA2
   33     1     2    35	 9 ;       HGA1     CG3C51     CG3C52       HGA2
    1     2     3     4	 9 ;     CG3C51     CG3C52     CG3C50      NG3P2
    1     2     3     7	 9 ;     CG3C51     CG3C52     CG3C50     CG2R61
    1     2     3    20	 9 ;     CG3C51     CG3C52     CG3C50     CG2R61
   34     2     3     4	 9 ;       HGA2     CG3C52     CG3C50      NG3P2
   34     2     3     7	 9 ;       HGA2     CG3C52     CG3C50     CG2R61
   34     2     3    20	 9 ;       HGA2     CG3C52     CG3C50     CG2R61
   35     2     3     4	 9 ;       HGA2     CG3C52     CG3C50      NG3P2
   35     2     3     7	 9 ;       HGA2     CG3C52     CG3C50     CG2R61
   35     2     3    20	 9 ;       HGA2     CG3C52     CG3C50     CG2R61
    2     3     4     6	 9 ;     CG3C52     CG3C50      NG3P2     CG3C53
    2     3     4     5	 9 ;     CG3C52     CG3C50      NG3P2       HGP2
    2     3     4    36	 9 ;     CG3C52     CG3C50      NG3P2       HGP2
    7     3     4     6	 9 ;     CG2R61     CG3C50      NG3P2     CG3C53
    7     3     4     5	 9 ;     CG2R61     CG3C50      NG3P2       HGP2
    7     3     4    36	 9 ;     CG2R61     CG3C50      NG3P2       HGP2
   20     3     4     6	 9 ;     CG2R61     CG3C50      NG3P2     CG3C53
   20     3     4     5	 9 ;     CG2R61     CG3C50      NG3P2       HGP2
   20     3     4    36	 9 ;     CG2R61     CG3C50      NG3P2       HGP2
    4     3     7    12	 9 ;      NG3P2     CG3C50     CG2R61     CG2R61
    4     3     7     8	 9 ;      NG3P2     CG3C50     CG2R61     CG2R61
    2     3     7    12	 9 ;     CG3C52     CG3C50     CG2R61     CG2R61
    2     3     7     8	 9 ;     CG3C52     CG3C50     CG2R61     CG2R61
   20     3     7    12	 9 ;     CG2R61     CG3C50     CG2R61     CG2R61
   20     3     7     8	 9 ;     CG2R61     CG3C50     CG2R61     CG2R61
    4     3    20    21	 9 ;      NG3P2     CG3C50     CG2R61     CG2R61
    4     3    20    25	 9 ;      NG3P2     CG3C50     CG2R61     CG2R61
    2     3    20    21	 9 ;     CG3C52     CG3C50     CG2R61     CG2R61
    2     3    20    25	 9 ;     CG3C52     CG3C50     CG2R61     CG2R61
    7     3    20    21	 9 ;     CG2R61     CG3C50     CG2R61     CG2R61
    7     3    20    25	 9 ;     CG2R61     CG3C50     CG2R61     CG2R61
    5     4     6    30	 9 ;       HGP2      NG3P2     CG3C53      NG3P3
    5     4     6     1	 9 ;       HGP2      NG3P2     CG3C53     CG3C51
    5     4     6    37	 9 ;       HGP2      NG3P2     CG3C53       HGA1
    3     4     6    30	 9 ;     CG3C50      NG3P2     CG3C53      NG3P3
    3     4     6     1	 9 ;     CG3C50      NG3P2     CG3C53     CG3C51
    3     4     6    37	 9 ;     CG3C50      NG3P2     CG3C53       HGA1
   36     4     6    30	 9 ;       HGP2      NG3P2     CG3C53      NG3P3
   36     4     6     1	 9 ;       HGP2      NG3P2     CG3C53     CG3C51
   36     4     6    37	 9 ;       HGP2      NG3P2     CG3C53       HGA1
    1     6    30    32	 9 ;     CG3C51     CG3C53      NG3P3       HGP2
    1     6    30    31	 9 ;     CG3C51     CG3C53      NG3P3       HGP2
    1     6    30    56	 9 ;     CG3C51     CG3C53      NG3P3       HGP2
    4     6    30    32	 9 ;      NG3P2     CG3C53      NG3P3       HGP2
    4     6    30    31	 9 ;      NG3P2     CG3C53      NG3P3       HGP2
    4     6    30    56	 9 ;      NG3P2     CG3C53      NG3P3       HGP2
   37     6    30    32	 9 ;       HGA1     CG3C53      NG3P3       HGP2
   37     6    30    31	 9 ;       HGA1     CG3C53      NG3P3       HGP2
   37     6    30    56	 9 ;       HGA1     CG3C53      NG3P3       HGP2
    3     7    12    11	 9 ;     CG3C50     CG2R61     CG2R61     CG2R61
    3     7    12    41	 9 ;     CG3C50     CG2R61     CG2R61      HGR61
    8     7    12    11	 9 ;     CG2R61     CG2R61     CG2R61     CG2R61
    8     7    12    41	 9 ;     CG2R61     CG2R61     CG2R61      HGR61
   12     7     8     9	 9 ;     CG2R61     CG2R61     CG2R61     CG2R61
   12     7     8    38	 9 ;     CG2R61     CG2R61     CG2R61      HGR61
    3     7     8     9	 9 ;     CG3C50     CG2R61     CG2R61     CG2R61
    3     7     8    38	 9 ;     CG3C50     CG2R61     CG2R61      HGR61
    7     8     9    10	 9 ;     CG2R61     CG2R61     CG2R61     CG2R61
    7     8     9    13	 9 ;     CG2R61     CG2R61     CG2R61     CG2DC1
   38     8     9    10	 9 ;      HGR61     CG2R61     CG2R61     CG2R61
   38     8     9    13	 9 ;      HGR61     CG2R61     CG2R61     CG2DC1
   13     9    10    11	 9 ;     CG2DC1     CG2R61     CG2R61     CG2R61
   13     9    10    39	 9 ;     CG2DC1     CG2R61     CG2R61      HGR61
    8     9    10    11	 9 ;     CG2R61     CG2R61     CG2R61     CG2R61
    8     9    10    39	 9 ;     CG2R61     CG2R61     CG2R61      HGR61
   10     9    13    18	 9 ;     CG2R61     CG2R61     CG2DC1     CG2D1O
   10     9    13    14	 9 ;     CG2R61     CG2R61     CG2DC1     CG2DC2
    8     9    13    18	 9 ;     CG2R61     CG2R61     CG2DC1     CG2D1O
    8     9    13    14	 9 ;     CG2R61     CG2R61     CG2DC1     CG2DC2
    9    10    11    12	 9 ;     CG2R61     CG2R61     CG2R61     CG2R61
    9    10    11    40	 9 ;     CG2R61     CG2R61     CG2R61      HGR61
   39    10    11    12	 9 ;      HGR61     CG2R61     CG2R61     CG2R61
   39    10    11    40	 9 ;      HGR61     CG2R61     CG2R61      HGR61
   10    11    12     7	 9 ;     CG2R61     CG2R61     CG2R61     CG2R61
   10    11    12    41	 9 ;     CG2R61     CG2R61     CG2R61      HGR61
   40    11    12     7	 9 ;      HGR61     CG2R61     CG2R61     CG2R61
   40    11    12    41	 9 ;      HGR61     CG2R61     CG2R61      HGR61
    9    13    18    17	 9 ;     CG2R61     CG2DC1     CG2D1O      NG311
    9    13    18    45	 9 ;     CG2R61     CG2DC1     CG2D1O       HGA4
   14    13    18    17	 9 ;     CG2DC2     CG2DC1     CG2D1O      NG311
   14    13    18    45	 9 ;     CG2DC2     CG2DC1     CG2D1O       HGA4
   18    13    14    15	 9 ;     CG2D1O     CG2DC1     CG2DC2     CG2DC2
   18    13    14    42	 9 ;     CG2D1O     CG2DC1     CG2DC2       HGA4
    9    13    14    15	 9 ;     CG2R61     CG2DC1     CG2DC2     CG2DC2
    9    13    14    42	 9 ;     CG2R61     CG2DC1     CG2DC2       HGA4
   13    14    15    16	 9 ;     CG2DC1     CG2DC2     CG2DC2      CG321
   13    14    15    43	 9 ;     CG2DC1     CG2DC2     CG2DC2       HGA4
   42    14    15    16	 9 ;       HGA4     CG2DC2     CG2DC2      CG321
   42    14    15    43	 9 ;       HGA4     CG2DC2     CG2DC2       HGA4
   14    15    16    17	 9 ;     CG2DC2     CG2DC2      CG321      NG311
   14    15    16    44	 9 ;     CG2DC2     CG2DC2      CG321       HGA2
   14    15    16    57	 9 ;     CG2DC2     CG2DC2      CG321       HGA2
   43    15    16    17	 9 ;       HGA4     CG2DC2      CG321      NG311
   43    15    16    44	 9 ;       HGA4     CG2DC2      CG321       HGA2
   43    15    16    57	 9 ;       HGA4     CG2DC2      CG321       HGA2
   15    16    17    19	 9 ;     CG2DC2      CG321      NG311     HGPAM1
   15    16    17    18	 9 ;     CG2DC2      CG321      NG311     CG2D1O
   44    16    17    19	 9 ;       HGA2      CG321      NG311     HGPAM1
   44    16    17    18	 9 ;       HGA2      CG321      NG311     CG2D1O
   57    16    17    19	 9 ;       HGA2      CG321      NG311     HGPAM1
   57    16    17    18	 9 ;       HGA2      CG321      NG311     CG2D1O
   19    17    18    13	 9 ;     HGPAM1      NG311     CG2D1O     CG2DC1
   19    17    18    45	 9 ;     HGPAM1      NG311     CG2D1O       HGA4
   16    17    18    13	 9 ;      CG321      NG311     CG2D1O     CG2DC1
   16    17    18    45	 9 ;      CG321      NG311     CG2D1O       HGA4
    3    20    21    22	 9 ;     CG3C50     CG2R61     CG2R61     CG2R61
    3    20    21    46	 9 ;     CG3C50     CG2R61     CG2R61      HGR61
   25    20    21    22	 9 ;     CG2R61     CG2R61     CG2R61     CG2R61
   25    20    21    46	 9 ;     CG2R61     CG2R61     CG2R61      HGR61
    3    20    25    24	 9 ;     CG3C50     CG2R61     CG2R61     CG2R61
    3    20    25    49	 9 ;     CG3C50     CG2R61     CG2R61      HGR61
   21    20    25    24	 9 ;     CG2R61     CG2R61     CG2R61     CG2R61
   21    20    25    49	 9 ;     CG2R61     CG2R61     CG2R61      HGR61
   20    21    22    23	 9 ;     CG2R61     CG2R61     CG2R61     CG2R61
   20    21    22    47	 9 ;     CG2R61     CG2R61     CG2R61      HGR61
   46    21    22    23	 9 ;      HGR61     CG2R61     CG2R61     CG2R61
   46    21    22    47	 9 ;      HGR61     CG2R61     CG2R61      HGR61
   21    22    23    24	 9 ;     CG2R61     CG2R61     CG2R61     CG2R61
   21    22    23    26	 9 ;     CG2R61     CG2R61     CG2R61      OG301
   47    22    23    24	 9 ;      HGR61     CG2R61     CG2R61     CG2R61
   47    22    23    26	 9 ;      HGR61     CG2R61     CG2R61      OG301
   22    23    24    25	 9 ;     CG2R61     CG2R61     CG2R61     CG2R61
   22    23    24    48	 9 ;     CG2R61     CG2R61     CG2R61      HGR61
   26    23    24    25	 9 ;      OG301     CG2R61     CG2R61     CG2R61
   26    23    24    48	 9 ;      OG301     CG2R61     CG2R61      HGR61
   22    23    26    27	 9 ;     CG2R61     CG2R61      OG301      CG331
   24    23    26    27	 9 ;     CG2R61     CG2R61      OG301      CG331
   23    24    25    20	 9 ;     CG2R61     CG2R61     CG2R61     CG2R61
   23    24    25    49	 9 ;     CG2R61     CG2R61     CG2R61      HGR61
   48    24    25    20	 9 ;      HGR61     CG2R61     CG2R61     CG2R61
   48    24    25    49	 9 ;      HGR61     CG2R61     CG2R61      HGR61
   23    26    27    50	 9 ;     CG2R61      OG301      CG331       HGA3
   23    26    27    51	 9 ;     CG2R61      OG301      CG331       HGA3
   23    26    27    52	 9 ;     CG2R61      OG301      CG331       HGA3
    1    28    29    53	 9 ;     CG3C51      OG301      CG331       HGA3
    1    28    29    54	 9 ;     CG3C51      OG301      CG331       HGA3
    1    28    29    55	 9 ;     CG3C51      OG301      CG331       HGA3

[ dihedrals ]
;	ai	  aj	ak	  al funct			  c0			c1			  c2			c3
   18    13    17    45	 2

