God Rules Over Mankind, Animals, Cosmos and Such
   66
    1LIG     C1    1  -1.676   0.598  -1.609
    1LIG     C2    2  -1.653   0.748  -1.637
    1LIG     O1    3  -1.653   0.811  -1.508
    1LIG     H1    4  -1.565   0.850  -1.490
    1LIG     C3    5  -1.531   0.774  -1.728
    1LIG     N1    6  -1.575   0.865  -1.836
    1LIG     C4    7  -1.631   0.821  -1.954
    1LIG     O2    8  -1.651   0.703  -1.978
    1LIG     C5    9  -1.679   0.934  -2.042
    1LIG     H2   10  -1.560   0.965  -1.825
    1LIG     C6   11  -1.410   0.842  -1.660
    1LIG     C7   12  -1.297   0.750  -1.618
    1LIG     C8   13  -1.310   0.663  -1.510
    1LIG     C9   14  -1.201   0.587  -1.469
    1LIG     F1   15  -1.214   0.506  -1.362
    1LIG    C10   16  -1.079   0.594  -1.534
    1LIG    C11   17  -1.068   0.677  -1.645
    1LIG    C12   18  -1.176   0.753  -1.688
    1LIG     F2   19  -0.951   0.686  -1.710
    1LIG     N2   20  -1.620   0.524  -1.728
    1LIG     H3   21  -1.696   0.522  -1.798
    1LIG     H4   22  -1.545   0.578  -1.771
    1LIG    C13   23  -1.576   0.385  -1.705
    1LIG    C14   24  -1.669   0.278  -1.757
    1LIG    C15   25  -1.661   0.303  -1.610
    1LIG    C16   26  -1.427   0.368  -1.704
    1LIG    C17   27  -1.364   0.283  -1.611
    1LIG    C18   28  -1.229   0.248  -1.619
    1LIG    C19   29  -1.156   0.303  -1.724
    1LIG    C20   30  -1.213   0.391  -1.816
    1LIG    C21   31  -1.348   0.424  -1.806
    1LIG     N3   32  -1.176   0.156  -1.533
    1LIG    C22   33  -1.112   0.187  -1.403
    1LIG    C23   34  -1.022   0.066  -1.386
    1LIG    C24   35  -1.216   0.159  -1.292
    1LIG    C25   36  -1.138  -0.031  -1.398
    1LIG     O3   37  -1.228   0.013  -1.291
    1LIG    C26   38  -1.202   0.011  -1.533
    1LIG    HC2   39  -1.783   0.578  -1.599
    1LIG    HC3   40  -1.624   0.568  -1.518
    1LIG     HC   41  -1.741   0.785  -1.689
    1LIG    HC1   42  -1.498   0.680  -1.772
    1LIG    HC4   43  -1.722   0.893  -2.133
    1LIG    HC5   44  -1.594   0.998  -2.067
    1LIG    HC6   45  -1.754   0.992  -1.989
    1LIG    HC7   46  -1.369   0.915  -1.729
    1LIG    HC8   47  -1.445   0.894  -1.571
    1LIG    HC9   48  -1.405   0.655  -1.458
    1LIG   HC10   49  -0.994   0.537  -1.500
    1LIG   HC11   50  -1.166   0.815  -1.776
    1LIG   HC12   51  -1.627   0.186  -1.799
    1LIG   HC13   52  -1.759   0.314  -1.806
    1LIG   HC14   53  -1.745   0.350  -1.558
    1LIG   HC15   54  -1.607   0.228  -1.552
    1LIG   HC16   55  -1.423   0.244  -1.530
    1LIG   HC17   56  -1.052   0.278  -1.735
    1LIG   HC18   57  -1.153   0.434  -1.895
    1LIG   HC19   58  -1.392   0.493  -1.877
    1LIG   HC20   59  -1.063   0.284  -1.397
    1LIG   HC21   60  -0.948   0.055  -1.465
    1LIG   HC22   61  -0.976   0.062  -1.287
    1LIG   HC23   62  -1.180   0.195  -1.196
    1LIG   HC24   63  -1.311   0.204  -1.317
    1LIG   HC25   64  -1.110  -0.136  -1.392
    1LIG   HC26   65  -1.153  -0.039  -1.617
    1LIG   HC27   66  -1.309  -0.009  -1.533
   0.00000   0.00000   0.00000
