Gromacs Runs On Most of All Computer Systems
   71
    1LIG     C1    1  -1.520   0.220  -1.685
    1LIG     C2    2  -1.412   0.338  -1.688
    1LIG     C3    3  -1.292   0.342  -1.578
    1LIG     C4    4  -1.168   0.260  -1.618
    1LIG     C5    5  -1.151   0.135  -1.537
    1LIG     C6    6  -1.051   0.130  -1.439
    1LIG     C7    7  -1.031   0.013  -1.366
    1LIG     F1    8  -0.932   0.010  -1.276
    1LIG     C8    9  -1.108  -0.100  -1.386
    1LIG     C9   10  -1.211  -0.093  -1.480
    1LIG    C10   11  -1.233   0.023  -1.555
    1LIG     F2   12  -1.288  -0.199  -1.502
    1LIG     N1   13  -1.253   0.477  -1.536
    1LIG    C11   14  -1.210   0.525  -1.415
    1LIG     O1   15  -1.178   0.644  -1.411
    1LIG    C12   16  -1.202   0.437  -1.292
    1LIG     H1   17  -1.256   0.553  -1.604
    1LIG     O2   18  -1.355   0.342  -1.820
    1LIG     H2   19  -1.349   0.436  -1.847
    1LIG     N2   20  -1.664   0.268  -1.728
    1LIG     H3   21  -1.658   0.319  -1.818
    1LIG     H4   22  -1.715   0.182  -1.753
    1LIG    C13   23  -1.764   0.356  -1.636
    1LIG    C14   24  -1.714   0.352  -1.488
    1LIG    C15   25  -1.811   0.422  -1.390
    1LIG    C16   26  -1.954   0.370  -1.400
    1LIG    C17   27  -2.005   0.360  -1.544
    1LIG    C18   28  -1.905   0.292  -1.640
    1LIG    C19   29  -1.763   0.506  -1.682
    1LIG     O3   30  -1.664   0.592  -1.638
    1LIG    C20   31  -1.691   0.712  -1.704
    1LIG    C21   32  -1.804   0.691  -1.781
    1LIG     N3   33  -1.851   0.562  -1.762
    1LIG     HN   34  -1.936   0.521  -1.802
    1LIG    C22   35  -1.613   0.839  -1.671
    1LIG    C23   36  -1.484   0.811  -1.594
    1LIG    C24   37  -1.575   0.920  -1.798
    1LIG    C25   38  -1.704   0.929  -1.585
    1LIG    HC2   39  -1.488   0.141  -1.752
    1LIG    HC3   40  -1.526   0.180  -1.584
    1LIG     HC   41  -1.467   0.431  -1.676
    1LIG    HC1   42  -1.332   0.293  -1.489
    1LIG    HC4   43  -1.177   0.232  -1.723
    1LIG    HC5   44  -1.079   0.323  -1.606
    1LIG    HC6   45  -0.989   0.216  -1.420
    1LIG    HC7   46  -1.090  -0.191  -1.331
    1LIG    HC8   47  -1.314   0.026  -1.626
    1LIG    HC9   48  -1.168   0.496  -1.207
    1LIG   HC10   49  -1.301   0.396  -1.270
    1LIG   HC11   50  -1.133   0.355  -1.309
    1LIG   HC12   51  -1.617   0.401  -1.482
    1LIG   HC13   52  -1.703   0.248  -1.457
    1LIG   HC14   53  -1.775   0.406  -1.288
    1LIG   HC15   54  -1.811   0.529  -1.411
    1LIG   HC16   55  -2.019   0.438  -1.345
    1LIG   HC17   56  -1.959   0.271  -1.354
    1LIG   HC18   57  -2.097   0.303  -1.544
    1LIG   HC19   58  -2.026   0.461  -1.580
    1LIG   HC20   59  -1.944   0.300  -1.741
    1LIG   HC21   60  -1.897   0.187  -1.613
    1LIG   HC22   61  -1.849   0.764  -1.846
    1LIG   HC23   62  -1.507   0.754  -1.504
    1LIG   HC24   63  -1.437   0.905  -1.566
    1LIG   HC25   64  -1.416   0.754  -1.657
    1LIG   HC26   65  -1.665   0.942  -1.855
    1LIG   HC27   66  -1.527   1.013  -1.768
    1LIG   HC28   67  -1.506   0.861  -1.859
    1LIG   HC29   68  -1.733   0.875  -1.495
    1LIG   HC30   69  -1.794   0.955  -1.641
    1LIG   HC31   70  -1.651   1.020  -1.557
    1LIG    H38   71  -1.825   0.532  -1.595
   0.00000   0.00000   0.00000
