; Created by cgenff_charmm2gmx.py

[ moleculetype ]
; Name			   nrexcl
LIG				 3

[ atoms ]
;	 nr		  type	resnr residue  atom   cgnr	   charge		mass  typeB    chargeB		massB
; residue	 1 LIG rtp LIG q	qsum
     1      CG324      1    LIG     C1      1      0.208     12.011   ;
     2      CG311      1    LIG     C2      2      0.089     12.011   ;
     3      CG311      1    LIG     C3      3     -0.007     12.011   ;
     4      CG321      1    LIG     C4      4     -0.153     12.011   ;
     5     CG2R61      1    LIG     C5      5      0.057     12.011   ;
     6     CG2R61      1    LIG     C6      6     -0.218     12.011   ;
     7     CG2R66      1    LIG     C7      7      0.261     12.011   ;
     8       FGR1      1    LIG     F1      8     -0.210     18.998   ;
     9     CG2R61      1    LIG     C8      9     -0.240     12.011   ;
    10     CG2R66      1    LIG     C9     10      0.261     12.011   ;
    11     CG2R61      1    LIG    C10     11     -0.218     12.011   ;
    12       FGR1      1    LIG     F2     12     -0.210     18.998   ;
    13      NG2S1      1    LIG     N1     13     -0.339     14.007   ;
    14      CG2O1      1    LIG    C11     14      0.488     12.011   ;
    15      OG2D1      1    LIG     O1     15     -0.509     15.999   ;
    16      CG331      1    LIG    C12     16     -0.270     12.011   ;
    17       HGP1      1    LIG     H1     17      0.261      1.008   ;
    18      OG311      1    LIG     O2     18     -0.625     15.999   ;
    19       HGP1      1    LIG     H2     19      0.415      1.008   ;
    20      NG3P2      1    LIG     N2     20     -0.489     14.007   ;
    21       HGP2      1    LIG     H3     21      0.341      1.008   ;
    22       HGP2      1    LIG     H4     22      0.341      1.008   ;
    23      CG301      1    LIG    C13     23      0.417     12.011   ;
    24      CG321      1    LIG    C14     24     -0.182     12.011   ;
    25      CG321      1    LIG    C15     25     -0.192     12.011   ;
    26      CG321      1    LIG    C16     26     -0.176     12.011   ;
    27      CG321      1    LIG    C17     27     -0.192     12.011   ;
    28      CG321      1    LIG    C18     28     -0.182     12.011   ;
    29     CG3C51      1    LIG    C19     29      0.201     12.011   ;
    30     OG3C51      1    LIG     O3     30     -0.352     15.999   ;
    31     CG2R51      1    LIG    C20     31     -0.061     12.011   ;
    32     CG2R51      1    LIG    C21     32     -0.239     12.011   ;
    33     NG3C51      1    LIG     N3     33     -0.397     14.007   ;
    34       HGP1      1    LIG     HN     34      0.271      1.008   ;
    35      CG301      1    LIG    C22     35      0.173     12.011   ;
    36      CG331      1    LIG    C23     36     -0.265     12.011   ;
    37      CG331      1    LIG    C24     37     -0.265     12.011   ;
    38      CG331      1    LIG    C25     38     -0.265     12.011   ;
    39       HGA2      1    LIG    HC2     39      0.090      1.008   ;
    40       HGA2      1    LIG    HC3     40      0.090      1.008   ;
    41       HGA1      1    LIG     HC     41      0.090      1.008   ;
    42       HGA1      1    LIG    HC1     42      0.090      1.008   ;
    43       HGA2      1    LIG    HC4     43      0.090      1.008   ;
    44       HGA2      1    LIG    HC5     44      0.090      1.008   ;
    45      HGR62      1    LIG    HC6     45      0.174      1.008   ;
    46      HGR62      1    LIG    HC7     46      0.186      1.008   ;
    47      HGR62      1    LIG    HC8     47      0.174      1.008   ;
    48       HGA3      1    LIG    HC9     48      0.090      1.008   ;
    49       HGA3      1    LIG   HC10     49      0.090      1.008   ;
    50       HGA3      1    LIG   HC11     50      0.090      1.008   ;
    51       HGA2      1    LIG   HC12     51      0.090      1.008   ;
    52       HGA2      1    LIG   HC13     52      0.090      1.008   ;
    53       HGA2      1    LIG   HC14     53      0.090      1.008   ;
    54       HGA2      1    LIG   HC15     54      0.090      1.008   ;
    55       HGA2      1    LIG   HC16     55      0.090      1.008   ;
    56       HGA2      1    LIG   HC17     56      0.090      1.008   ;
    57       HGA2      1    LIG   HC18     57      0.090      1.008   ;
    58       HGA2      1    LIG   HC19     58      0.090      1.008   ;
    59       HGA2      1    LIG   HC20     59      0.090      1.008   ;
    60       HGA2      1    LIG   HC21     60      0.090      1.008   ;
    61      HGR52      1    LIG   HC22     61      0.290      1.008   ;
    62       HGA3      1    LIG   HC23     62      0.090      1.008   ;
    63       HGA3      1    LIG   HC24     63      0.090      1.008   ;
    64       HGA3      1    LIG   HC25     64      0.090      1.008   ;
    65       HGA3      1    LIG   HC26     65      0.090      1.008   ;
    66       HGA3      1    LIG   HC27     66      0.090      1.008   ;
    67       HGA3      1    LIG   HC28     67      0.090      1.008   ;
    68       HGA3      1    LIG   HC29     68      0.090      1.008   ;
    69       HGA3      1    LIG   HC30     69      0.090      1.008   ;
    70       HGA3      1    LIG   HC31     70      0.090      1.008   ;
    71       HGA1      1    LIG    H38     71      0.128      1.008   ;

[ bonds ]
;	ai	  aj funct			  c0			c1			  c2			c3
    1     2	 1 ;       CG324      CG311
    1    20	 1 ;       CG324      NG3P2
    1    39	 1 ;       CG324       HGA2
    1    40	 1 ;       CG324       HGA2
    2    18	 1 ;       CG311      OG311
    2     3	 1 ;       CG311      CG311
    2    41	 1 ;       CG311       HGA1
    3     4	 1 ;       CG311      CG321
    3    13	 1 ;       CG311      NG2S1
    3    42	 1 ;       CG311       HGA1
    4     5	 1 ;       CG321     CG2R61
    4    43	 1 ;       CG321       HGA2
    4    44	 1 ;       CG321       HGA2
    5     6	 1 ;      CG2R61     CG2R61
    5    11	 1 ;      CG2R61     CG2R61
    6     7	 1 ;      CG2R61     CG2R66
    6    45	 1 ;      CG2R61      HGR62
    7     8	 1 ;      CG2R66       FGR1
    7     9	 1 ;      CG2R66     CG2R61
    9    10	 1 ;      CG2R61     CG2R66
    9    46	 1 ;      CG2R61      HGR62
   10    11	 1 ;      CG2R66     CG2R61
   10    12	 1 ;      CG2R66       FGR1
   11    47	 1 ;      CG2R61      HGR62
   13    17	 1 ;       NG2S1       HGP1
   13    14	 1 ;       NG2S1      CG2O1
   14    15	 1 ;       CG2O1      OG2D1
   14    16	 1 ;       CG2O1      CG331
   16    48	 1 ;       CG331       HGA3
   16    49	 1 ;       CG331       HGA3
   16    50	 1 ;       CG331       HGA3
   18    19	 1 ;       OG311       HGP1
   20    21	 1 ;       NG3P2       HGP2
   20    22	 1 ;       NG3P2       HGP2
   20    23	 1 ;       NG3P2      CG301
   23    29	 1 ;       CG301     CG3C51
   23    24	 1 ;       CG301      CG321
   23    28	 1 ;       CG301      CG321
   24    25	 1 ;       CG321      CG321
   24    51	 1 ;       CG321       HGA2
   24    52	 1 ;       CG321       HGA2
   25    26	 1 ;       CG321      CG321
   25    53	 1 ;       CG321       HGA2
   25    54	 1 ;       CG321       HGA2
   26    27	 1 ;       CG321      CG321
   26    55	 1 ;       CG321       HGA2
   26    56	 1 ;       CG321       HGA2
   27    28	 1 ;       CG321      CG321
   27    57	 1 ;       CG321       HGA2
   27    58	 1 ;       CG321       HGA2
   28    59	 1 ;       CG321       HGA2
   28    60	 1 ;       CG321       HGA2
   29    30	 1 ;      CG3C51     OG3C51
   29    33	 1 ;      CG3C51     NG3C51
   29    71	 1 ;      CG3C51       HGA1
   30    31	 1 ;      OG3C51     CG2R51
   31    35	 1 ;      CG2R51      CG301
   31    32	 1 ;      CG2R51     CG2R51
   32    33	 1 ;      CG2R51     NG3C51
   32    61	 1 ;      CG2R51      HGR52
   33    34	 1 ;      NG3C51       HGP1
   35    37	 1 ;       CG301      CG331
   35    36	 1 ;       CG301      CG331
   35    38	 1 ;       CG301      CG331
   36    62	 1 ;       CG331       HGA3
   36    63	 1 ;       CG331       HGA3
   36    64	 1 ;       CG331       HGA3
   37    65	 1 ;       CG331       HGA3
   37    66	 1 ;       CG331       HGA3
   37    67	 1 ;       CG331       HGA3
   38    68	 1 ;       CG331       HGA3
   38    69	 1 ;       CG331       HGA3
   38    70	 1 ;       CG331       HGA3

[ pairs ]
;	ai	  aj funct			  c0			c1			  c2			c3
    1    19	 1
    1     4	 1
    1    13	 1
    1    42	 1
    1    29	 1
    1    24	 1
    1    28	 1
    2    21	 1
    2    22	 1
    2    23	 1
    2     5	 1
    2    43	 1
    2    44	 1
    2    17	 1
    2    14	 1
    3    20	 1
    3    39	 1
    3    40	 1
    3    19	 1
    3     6	 1
    3    11	 1
    3    15	 1
    3    16	 1
    4    18	 1
    4    41	 1
    4    17	 1
    4    14	 1
    4     7	 1
    4    45	 1
    4    10	 1
    4    47	 1
    5    13	 1
    5    42	 1
    5     8	 1
    5     9	 1
    5    12	 1
    6    43	 1
    6    44	 1
    6    10	 1
    6    47	 1
    6    46	 1
    7    11	 1
    7    12	 1
    8    45	 1
    8    10	 1
    8    46	 1
    9    45	 1
    9    47	 1
   11    43	 1
   11    44	 1
   11    45	 1
   11    46	 1
   12    46	 1
   12    47	 1
   13    18	 1
   13    41	 1
   13    43	 1
   13    44	 1
   13    48	 1
   13    49	 1
   13    50	 1
   14    42	 1
   15    17	 1
   15    48	 1
   15    49	 1
   15    50	 1
   16    17	 1
   17    42	 1
   18    20	 1
   18    39	 1
   18    40	 1
   18    42	 1
   19    41	 1
   20    41	 1
   20    30	 1
   20    33	 1
   20    71	 1
   20    25	 1
   20    51	 1
   20    52	 1
   20    27	 1
   20    59	 1
   20    60	 1
   21    39	 1
   21    40	 1
   21    29	 1
   21    24	 1
   21    28	 1
   22    39	 1
   22    40	 1
   22    29	 1
   22    24	 1
   22    28	 1
   23    39	 1
   23    40	 1
   23    26	 1
   23    53	 1
   23    54	 1
   23    57	 1
   23    58	 1
   23    31	 1
   23    32	 1
   23    34	 1
   24    30	 1
   24    33	 1
   24    71	 1
   24    27	 1
   24    59	 1
   24    60	 1
   24    55	 1
   24    56	 1
   25    29	 1
   25    28	 1
   25    57	 1
   25    58	 1
   26    51	 1
   26    52	 1
   26    59	 1
   26    60	 1
   27    29	 1
   27    53	 1
   27    54	 1
   28    30	 1
   28    33	 1
   28    71	 1
   28    51	 1
   28    52	 1
   28    55	 1
   28    56	 1
   29    51	 1
   29    52	 1
   29    59	 1
   29    60	 1
   29    35	 1
   29    61	 1
   30    34	 1
   30    37	 1
   30    36	 1
   30    38	 1
   30    61	 1
   31    71	 1
   31    34	 1
   31    65	 1
   31    66	 1
   31    67	 1
   31    62	 1
   31    63	 1
   31    64	 1
   31    68	 1
   31    69	 1
   31    70	 1
   32    71	 1
   32    37	 1
   32    36	 1
   32    38	 1
   33    35	 1
   34    71	 1
   34    61	 1
   35    61	 1
   36    65	 1
   36    66	 1
   36    67	 1
   36    68	 1
   36    69	 1
   36    70	 1
   37    62	 1
   37    63	 1
   37    64	 1
   37    68	 1
   37    69	 1
   37    70	 1
   38    65	 1
   38    66	 1
   38    67	 1
   38    62	 1
   38    63	 1
   38    64	 1
   39    41	 1
   40    41	 1
   41    42	 1
   42    43	 1
   42    44	 1
   51    53	 1
   51    54	 1
   52    53	 1
   52    54	 1
   53    55	 1
   53    56	 1
   54    55	 1
   54    56	 1
   55    57	 1
   55    58	 1
   56    57	 1
   56    58	 1
   57    59	 1
   57    60	 1
   58    59	 1
   58    60	 1

[ angles ]
;	ai	  aj	ak funct			c0			  c1			c2			  c3
    2     1    20	5 ;      CG311      CG324      NG3P2
    2     1    39	5 ;      CG311      CG324       HGA2
    2     1    40	5 ;      CG311      CG324       HGA2
   20     1    39	5 ;      NG3P2      CG324       HGA2
   20     1    40	5 ;      NG3P2      CG324       HGA2
   39     1    40	5 ;       HGA2      CG324       HGA2
   18     2     3	5 ;      OG311      CG311      CG311
   18     2     1	5 ;      OG311      CG311      CG324
   18     2    41	5 ;      OG311      CG311       HGA1
    3     2     1	5 ;      CG311      CG311      CG324
    3     2    41	5 ;      CG311      CG311       HGA1
    1     2    41	5 ;      CG324      CG311       HGA1
    4     3    13	5 ;      CG321      CG311      NG2S1
    4     3     2	5 ;      CG321      CG311      CG311
    4     3    42	5 ;      CG321      CG311       HGA1
   13     3     2	5 ;      NG2S1      CG311      CG311
   13     3    42	5 ;      NG2S1      CG311       HGA1
    2     3    42	5 ;      CG311      CG311       HGA1
    5     4     3	5 ;     CG2R61      CG321      CG311
    5     4    43	5 ;     CG2R61      CG321       HGA2
    5     4    44	5 ;     CG2R61      CG321       HGA2
    3     4    43	5 ;      CG311      CG321       HGA2
    3     4    44	5 ;      CG311      CG321       HGA2
   43     4    44	5 ;       HGA2      CG321       HGA2
    4     5     6	5 ;      CG321     CG2R61     CG2R61
    4     5    11	5 ;      CG321     CG2R61     CG2R61
    6     5    11	5 ;     CG2R61     CG2R61     CG2R61
    5     6     7	5 ;     CG2R61     CG2R61     CG2R66
    5     6    45	5 ;     CG2R61     CG2R61      HGR62
    7     6    45	5 ;     CG2R66     CG2R61      HGR62
    6     7     8	5 ;     CG2R61     CG2R66       FGR1
    6     7     9	5 ;     CG2R61     CG2R66     CG2R61
    8     7     9	5 ;       FGR1     CG2R66     CG2R61
    7     9    10	5 ;     CG2R66     CG2R61     CG2R66
    7     9    46	5 ;     CG2R66     CG2R61      HGR62
   10     9    46	5 ;     CG2R66     CG2R61      HGR62
   11    10     9	5 ;     CG2R61     CG2R66     CG2R61
   11    10    12	5 ;     CG2R61     CG2R66       FGR1
    9    10    12	5 ;     CG2R61     CG2R66       FGR1
    5    11    10	5 ;     CG2R61     CG2R61     CG2R66
    5    11    47	5 ;     CG2R61     CG2R61      HGR62
   10    11    47	5 ;     CG2R66     CG2R61      HGR62
   17    13    14	5 ;       HGP1      NG2S1      CG2O1
   17    13     3	5 ;       HGP1      NG2S1      CG311
   14    13     3	5 ;      CG2O1      NG2S1      CG311
   15    14    13	5 ;      OG2D1      CG2O1      NG2S1
   15    14    16	5 ;      OG2D1      CG2O1      CG331
   13    14    16	5 ;      NG2S1      CG2O1      CG331
   14    16    48	5 ;      CG2O1      CG331       HGA3
   14    16    49	5 ;      CG2O1      CG331       HGA3
   14    16    50	5 ;      CG2O1      CG331       HGA3
   48    16    49	5 ;       HGA3      CG331       HGA3
   48    16    50	5 ;       HGA3      CG331       HGA3
   49    16    50	5 ;       HGA3      CG331       HGA3
   19    18     2	5 ;       HGP1      OG311      CG311
    1    20    21	5 ;      CG324      NG3P2       HGP2
    1    20    22	5 ;      CG324      NG3P2       HGP2
    1    20    23	5 ;      CG324      NG3P2      CG301
   21    20    22	5 ;       HGP2      NG3P2       HGP2
   21    20    23	5 ;       HGP2      NG3P2      CG301
   22    20    23	5 ;       HGP2      NG3P2      CG301
   20    23    29	5 ;      NG3P2      CG301     CG3C51
   20    23    24	5 ;      NG3P2      CG301      CG321
   20    23    28	5 ;      NG3P2      CG301      CG321
   29    23    24	5 ;     CG3C51      CG301      CG321
   29    23    28	5 ;     CG3C51      CG301      CG321
   24    23    28	5 ;      CG321      CG301      CG321
   23    24    25	5 ;      CG301      CG321      CG321
   23    24    51	5 ;      CG301      CG321       HGA2
   23    24    52	5 ;      CG301      CG321       HGA2
   25    24    51	5 ;      CG321      CG321       HGA2
   25    24    52	5 ;      CG321      CG321       HGA2
   51    24    52	5 ;       HGA2      CG321       HGA2
   24    25    26	5 ;      CG321      CG321      CG321
   24    25    53	5 ;      CG321      CG321       HGA2
   24    25    54	5 ;      CG321      CG321       HGA2
   26    25    53	5 ;      CG321      CG321       HGA2
   26    25    54	5 ;      CG321      CG321       HGA2
   53    25    54	5 ;       HGA2      CG321       HGA2
   25    26    27	5 ;      CG321      CG321      CG321
   25    26    55	5 ;      CG321      CG321       HGA2
   25    26    56	5 ;      CG321      CG321       HGA2
   27    26    55	5 ;      CG321      CG321       HGA2
   27    26    56	5 ;      CG321      CG321       HGA2
   55    26    56	5 ;       HGA2      CG321       HGA2
   28    27    26	5 ;      CG321      CG321      CG321
   28    27    57	5 ;      CG321      CG321       HGA2
   28    27    58	5 ;      CG321      CG321       HGA2
   26    27    57	5 ;      CG321      CG321       HGA2
   26    27    58	5 ;      CG321      CG321       HGA2
   57    27    58	5 ;       HGA2      CG321       HGA2
   23    28    27	5 ;      CG301      CG321      CG321
   23    28    59	5 ;      CG301      CG321       HGA2
   23    28    60	5 ;      CG301      CG321       HGA2
   27    28    59	5 ;      CG321      CG321       HGA2
   27    28    60	5 ;      CG321      CG321       HGA2
   59    28    60	5 ;       HGA2      CG321       HGA2
   30    29    33	5 ;     OG3C51     CG3C51     NG3C51
   30    29    23	5 ;     OG3C51     CG3C51      CG301
   30    29    71	5 ;     OG3C51     CG3C51       HGA1
   33    29    23	5 ;     NG3C51     CG3C51      CG301
   33    29    71	5 ;     NG3C51     CG3C51       HGA1
   23    29    71	5 ;      CG301     CG3C51       HGA1
   31    30    29	5 ;     CG2R51     OG3C51     CG3C51
   35    31    30	5 ;      CG301     CG2R51     OG3C51
   35    31    32	5 ;      CG301     CG2R51     CG2R51
   30    31    32	5 ;     OG3C51     CG2R51     CG2R51
   31    32    33	5 ;     CG2R51     CG2R51     NG3C51
   31    32    61	5 ;     CG2R51     CG2R51      HGR52
   33    32    61	5 ;     NG3C51     CG2R51      HGR52
   32    33    29	5 ;     CG2R51     NG3C51     CG3C51
   32    33    34	5 ;     CG2R51     NG3C51       HGP1
   29    33    34	5 ;     CG3C51     NG3C51       HGP1
   37    35    36	5 ;      CG331      CG301      CG331
   37    35    31	5 ;      CG331      CG301     CG2R51
   37    35    38	5 ;      CG331      CG301      CG331
   36    35    31	5 ;      CG331      CG301     CG2R51
   36    35    38	5 ;      CG331      CG301      CG331
   31    35    38	5 ;     CG2R51      CG301      CG331
   35    36    62	5 ;      CG301      CG331       HGA3
   35    36    63	5 ;      CG301      CG331       HGA3
   35    36    64	5 ;      CG301      CG331       HGA3
   62    36    63	5 ;       HGA3      CG331       HGA3
   62    36    64	5 ;       HGA3      CG331       HGA3
   63    36    64	5 ;       HGA3      CG331       HGA3
   35    37    65	5 ;      CG301      CG331       HGA3
   35    37    66	5 ;      CG301      CG331       HGA3
   35    37    67	5 ;      CG301      CG331       HGA3
   65    37    66	5 ;       HGA3      CG331       HGA3
   65    37    67	5 ;       HGA3      CG331       HGA3
   66    37    67	5 ;       HGA3      CG331       HGA3
   35    38    68	5 ;      CG301      CG331       HGA3
   35    38    69	5 ;      CG301      CG331       HGA3
   35    38    70	5 ;      CG301      CG331       HGA3
   68    38    69	5 ;       HGA3      CG331       HGA3
   68    38    70	5 ;       HGA3      CG331       HGA3
   69    38    70	5 ;       HGA3      CG331       HGA3

[ dihedrals ]
;	ai	  aj	ak	  al funct			  c0			c1			  c2			c3			  c4			c5
   20     1     2    18	 9 ;      NG3P2      CG324      CG311      OG311
   20     1     2     3	 9 ;      NG3P2      CG324      CG311      CG311
   20     1     2    41	 9 ;      NG3P2      CG324      CG311       HGA1
   39     1     2    18	 9 ;       HGA2      CG324      CG311      OG311
   39     1     2     3	 9 ;       HGA2      CG324      CG311      CG311
   39     1     2    41	 9 ;       HGA2      CG324      CG311       HGA1
   40     1     2    18	 9 ;       HGA2      CG324      CG311      OG311
   40     1     2     3	 9 ;       HGA2      CG324      CG311      CG311
   40     1     2    41	 9 ;       HGA2      CG324      CG311       HGA1
    2     1    20    21	 9 ;      CG311      CG324      NG3P2       HGP2
    2     1    20    22	 9 ;      CG311      CG324      NG3P2       HGP2
    2     1    20    23	 9 ;      CG311      CG324      NG3P2      CG301
   39     1    20    21	 9 ;       HGA2      CG324      NG3P2       HGP2
   39     1    20    22	 9 ;       HGA2      CG324      NG3P2       HGP2
   39     1    20    23	 9 ;       HGA2      CG324      NG3P2      CG301
   40     1    20    21	 9 ;       HGA2      CG324      NG3P2       HGP2
   40     1    20    22	 9 ;       HGA2      CG324      NG3P2       HGP2
   40     1    20    23	 9 ;       HGA2      CG324      NG3P2      CG301
    3     2    18    19	 9 ;      CG311      CG311      OG311       HGP1
    1     2    18    19	 9 ;      CG324      CG311      OG311       HGP1
   41     2    18    19	 9 ;       HGA1      CG311      OG311       HGP1
   18     2     3     4	 9 ;      OG311      CG311      CG311      CG321
   18     2     3    13	 9 ;      OG311      CG311      CG311      NG2S1
   18     2     3    42	 9 ;      OG311      CG311      CG311       HGA1
    1     2     3     4	 9 ;      CG324      CG311      CG311      CG321
    1     2     3    13	 9 ;      CG324      CG311      CG311      NG2S1
    1     2     3    42	 9 ;      CG324      CG311      CG311       HGA1
   41     2     3     4	 9 ;       HGA1      CG311      CG311      CG321
   41     2     3    13	 9 ;       HGA1      CG311      CG311      NG2S1
   41     2     3    42	 9 ;       HGA1      CG311      CG311       HGA1
   13     3     4     5	 9 ;      NG2S1      CG311      CG321     CG2R61
   13     3     4    43	 9 ;      NG2S1      CG311      CG321       HGA2
   13     3     4    44	 9 ;      NG2S1      CG311      CG321       HGA2
    2     3     4     5	 9 ;      CG311      CG311      CG321     CG2R61
    2     3     4    43	 9 ;      CG311      CG311      CG321       HGA2
    2     3     4    44	 9 ;      CG311      CG311      CG321       HGA2
   42     3     4     5	 9 ;       HGA1      CG311      CG321     CG2R61
   42     3     4    43	 9 ;       HGA1      CG311      CG321       HGA2
   42     3     4    44	 9 ;       HGA1      CG311      CG321       HGA2
    4     3    13    17	 9 ;      CG321      CG311      NG2S1       HGP1
    4     3    13    14	 9 ;      CG321      CG311      NG2S1      CG2O1
    2     3    13    17	 9 ;      CG311      CG311      NG2S1       HGP1
    2     3    13    14	 9 ;      CG311      CG311      NG2S1      CG2O1
   42     3    13    17	 9 ;       HGA1      CG311      NG2S1       HGP1
   42     3    13    14	 9 ;       HGA1      CG311      NG2S1      CG2O1
    3     4     5     6	 9 ;      CG311      CG321     CG2R61     CG2R61
    3     4     5    11	 9 ;      CG311      CG321     CG2R61     CG2R61
   43     4     5     6	 9 ;       HGA2      CG321     CG2R61     CG2R61
   43     4     5    11	 9 ;       HGA2      CG321     CG2R61     CG2R61
   44     4     5     6	 9 ;       HGA2      CG321     CG2R61     CG2R61
   44     4     5    11	 9 ;       HGA2      CG321     CG2R61     CG2R61
    4     5     6     7	 9 ;      CG321     CG2R61     CG2R61     CG2R66
    4     5     6    45	 9 ;      CG321     CG2R61     CG2R61      HGR62
   11     5     6     7	 9 ;     CG2R61     CG2R61     CG2R61     CG2R66
   11     5     6    45	 9 ;     CG2R61     CG2R61     CG2R61      HGR62
    4     5    11    10	 9 ;      CG321     CG2R61     CG2R61     CG2R66
    4     5    11    47	 9 ;      CG321     CG2R61     CG2R61      HGR62
    6     5    11    10	 9 ;     CG2R61     CG2R61     CG2R61     CG2R66
    6     5    11    47	 9 ;     CG2R61     CG2R61     CG2R61      HGR62
    5     6     7     8	 9 ;     CG2R61     CG2R61     CG2R66       FGR1
    5     6     7     9	 9 ;     CG2R61     CG2R61     CG2R66     CG2R61
   45     6     7     8	 9 ;      HGR62     CG2R61     CG2R66       FGR1
   45     6     7     9	 9 ;      HGR62     CG2R61     CG2R66     CG2R61
    6     7     9    10	 9 ;     CG2R61     CG2R66     CG2R61     CG2R66
    6     7     9    46	 9 ;     CG2R61     CG2R66     CG2R61      HGR62
    8     7     9    10	 9 ;       FGR1     CG2R66     CG2R61     CG2R66
    8     7     9    46	 9 ;       FGR1     CG2R66     CG2R61      HGR62
    7     9    10    11	 9 ;     CG2R66     CG2R61     CG2R66     CG2R61
    7     9    10    12	 9 ;     CG2R66     CG2R61     CG2R66       FGR1
   46     9    10    11	 9 ;      HGR62     CG2R61     CG2R66     CG2R61
   46     9    10    12	 9 ;      HGR62     CG2R61     CG2R66       FGR1
    9    10    11     5	 9 ;     CG2R61     CG2R66     CG2R61     CG2R61
    9    10    11    47	 9 ;     CG2R61     CG2R66     CG2R61      HGR62
   12    10    11     5	 9 ;       FGR1     CG2R66     CG2R61     CG2R61
   12    10    11    47	 9 ;       FGR1     CG2R66     CG2R61      HGR62
   17    13    14    15	 9 ;       HGP1      NG2S1      CG2O1      OG2D1
   17    13    14    16	 9 ;       HGP1      NG2S1      CG2O1      CG331
    3    13    14    15	 9 ;      CG311      NG2S1      CG2O1      OG2D1
    3    13    14    16	 9 ;      CG311      NG2S1      CG2O1      CG331
   15    14    16    48	 9 ;      OG2D1      CG2O1      CG331       HGA3
   15    14    16    49	 9 ;      OG2D1      CG2O1      CG331       HGA3
   15    14    16    50	 9 ;      OG2D1      CG2O1      CG331       HGA3
   13    14    16    48	 9 ;      NG2S1      CG2O1      CG331       HGA3
   13    14    16    49	 9 ;      NG2S1      CG2O1      CG331       HGA3
   13    14    16    50	 9 ;      NG2S1      CG2O1      CG331       HGA3
    1    20    23    29	 9 ;      CG324      NG3P2      CG301     CG3C51
    1    20    23    24	 9 ;      CG324      NG3P2      CG301      CG321
    1    20    23    28	 9 ;      CG324      NG3P2      CG301      CG321
   21    20    23    29	 9 ;       HGP2      NG3P2      CG301     CG3C51
   21    20    23    24	 9 ;       HGP2      NG3P2      CG301      CG321
   21    20    23    28	 9 ;       HGP2      NG3P2      CG301      CG321
   22    20    23    29	 9 ;       HGP2      NG3P2      CG301     CG3C51
   22    20    23    24	 9 ;       HGP2      NG3P2      CG301      CG321
   22    20    23    28	 9 ;       HGP2      NG3P2      CG301      CG321
   20    23    29    30	 9 ;      NG3P2      CG301     CG3C51     OG3C51
   20    23    29    33	 9 ;      NG3P2      CG301     CG3C51     NG3C51
   20    23    29    71	 9 ;      NG3P2      CG301     CG3C51       HGA1
   24    23    29    30	 9 ;      CG321      CG301     CG3C51     OG3C51
   24    23    29    33	 9 ;      CG321      CG301     CG3C51     NG3C51
   24    23    29    71	 9 ;      CG321      CG301     CG3C51       HGA1
   28    23    29    30	 9 ;      CG321      CG301     CG3C51     OG3C51
   28    23    29    33	 9 ;      CG321      CG301     CG3C51     NG3C51
   28    23    29    71	 9 ;      CG321      CG301     CG3C51       HGA1
   20    23    24    25	 9 ;      NG3P2      CG301      CG321      CG321
   20    23    24    51	 9 ;      NG3P2      CG301      CG321       HGA2
   20    23    24    52	 9 ;      NG3P2      CG301      CG321       HGA2
   29    23    24    25	 9 ;     CG3C51      CG301      CG321      CG321
   29    23    24    51	 9 ;     CG3C51      CG301      CG321       HGA2
   29    23    24    52	 9 ;     CG3C51      CG301      CG321       HGA2
   28    23    24    25	 9 ;      CG321      CG301      CG321      CG321
   28    23    24    51	 9 ;      CG321      CG301      CG321       HGA2
   28    23    24    52	 9 ;      CG321      CG301      CG321       HGA2
   20    23    28    27	 9 ;      NG3P2      CG301      CG321      CG321
   20    23    28    59	 9 ;      NG3P2      CG301      CG321       HGA2
   20    23    28    60	 9 ;      NG3P2      CG301      CG321       HGA2
   29    23    28    27	 9 ;     CG3C51      CG301      CG321      CG321
   29    23    28    59	 9 ;     CG3C51      CG301      CG321       HGA2
   29    23    28    60	 9 ;     CG3C51      CG301      CG321       HGA2
   24    23    28    27	 9 ;      CG321      CG301      CG321      CG321
   24    23    28    59	 9 ;      CG321      CG301      CG321       HGA2
   24    23    28    60	 9 ;      CG321      CG301      CG321       HGA2
   23    24    25    26	 9 ;      CG301      CG321      CG321      CG321
   23    24    25    53	 9 ;      CG301      CG321      CG321       HGA2
   23    24    25    54	 9 ;      CG301      CG321      CG321       HGA2
   51    24    25    26	 9 ;       HGA2      CG321      CG321      CG321
   51    24    25    53	 9 ;       HGA2      CG321      CG321       HGA2
   51    24    25    54	 9 ;       HGA2      CG321      CG321       HGA2
   52    24    25    26	 9 ;       HGA2      CG321      CG321      CG321
   52    24    25    53	 9 ;       HGA2      CG321      CG321       HGA2
   52    24    25    54	 9 ;       HGA2      CG321      CG321       HGA2
   24    25    26    27	 9 ;      CG321      CG321      CG321      CG321
   24    25    26    55	 9 ;      CG321      CG321      CG321       HGA2
   24    25    26    56	 9 ;      CG321      CG321      CG321       HGA2
   53    25    26    27	 9 ;       HGA2      CG321      CG321      CG321
   53    25    26    55	 9 ;       HGA2      CG321      CG321       HGA2
   53    25    26    56	 9 ;       HGA2      CG321      CG321       HGA2
   54    25    26    27	 9 ;       HGA2      CG321      CG321      CG321
   54    25    26    55	 9 ;       HGA2      CG321      CG321       HGA2
   54    25    26    56	 9 ;       HGA2      CG321      CG321       HGA2
   25    26    27    28	 9 ;      CG321      CG321      CG321      CG321
   25    26    27    57	 9 ;      CG321      CG321      CG321       HGA2
   25    26    27    58	 9 ;      CG321      CG321      CG321       HGA2
   55    26    27    28	 9 ;       HGA2      CG321      CG321      CG321
   55    26    27    57	 9 ;       HGA2      CG321      CG321       HGA2
   55    26    27    58	 9 ;       HGA2      CG321      CG321       HGA2
   56    26    27    28	 9 ;       HGA2      CG321      CG321      CG321
   56    26    27    57	 9 ;       HGA2      CG321      CG321       HGA2
   56    26    27    58	 9 ;       HGA2      CG321      CG321       HGA2
   26    27    28    23	 9 ;      CG321      CG321      CG321      CG301
   26    27    28    59	 9 ;      CG321      CG321      CG321       HGA2
   26    27    28    60	 9 ;      CG321      CG321      CG321       HGA2
   57    27    28    23	 9 ;       HGA2      CG321      CG321      CG301
   57    27    28    59	 9 ;       HGA2      CG321      CG321       HGA2
   57    27    28    60	 9 ;       HGA2      CG321      CG321       HGA2
   58    27    28    23	 9 ;       HGA2      CG321      CG321      CG301
   58    27    28    59	 9 ;       HGA2      CG321      CG321       HGA2
   58    27    28    60	 9 ;       HGA2      CG321      CG321       HGA2
   33    29    30    31	 9 ;     NG3C51     CG3C51     OG3C51     CG2R51
   23    29    30    31	 9 ;      CG301     CG3C51     OG3C51     CG2R51
   71    29    30    31	 9 ;       HGA1     CG3C51     OG3C51     CG2R51
   30    29    33    32	 9 ;     OG3C51     CG3C51     NG3C51     CG2R51
   30    29    33    34	 9 ;     OG3C51     CG3C51     NG3C51       HGP1
   23    29    33    32	 9 ;      CG301     CG3C51     NG3C51     CG2R51
   23    29    33    34	 9 ;      CG301     CG3C51     NG3C51       HGP1
   71    29    33    32	 9 ;       HGA1     CG3C51     NG3C51     CG2R51
   71    29    33    34	 9 ;       HGA1     CG3C51     NG3C51       HGP1
   29    30    31    35	 9 ;     CG3C51     OG3C51     CG2R51      CG301
   29    30    31    32	 9 ;     CG3C51     OG3C51     CG2R51     CG2R51
   30    31    35    37	 9 ;     OG3C51     CG2R51      CG301      CG331
   30    31    35    36	 9 ;     OG3C51     CG2R51      CG301      CG331
   30    31    35    38	 9 ;     OG3C51     CG2R51      CG301      CG331
   32    31    35    37	 9 ;     CG2R51     CG2R51      CG301      CG331
   32    31    35    36	 9 ;     CG2R51     CG2R51      CG301      CG331
   32    31    35    38	 9 ;     CG2R51     CG2R51      CG301      CG331
   35    31    32    33	 9 ;      CG301     CG2R51     CG2R51     NG3C51
   35    31    32    61	 9 ;      CG301     CG2R51     CG2R51      HGR52
   30    31    32    33	 9 ;     OG3C51     CG2R51     CG2R51     NG3C51
   30    31    32    61	 9 ;     OG3C51     CG2R51     CG2R51      HGR52
   31    32    33    29	 9 ;     CG2R51     CG2R51     NG3C51     CG3C51
   31    32    33    34	 9 ;     CG2R51     CG2R51     NG3C51       HGP1
   61    32    33    29	 9 ;      HGR52     CG2R51     NG3C51     CG3C51
   61    32    33    34	 9 ;      HGR52     CG2R51     NG3C51       HGP1
   36    35    37    65	 9 ;      CG331      CG301      CG331       HGA3
   36    35    37    66	 9 ;      CG331      CG301      CG331       HGA3
   36    35    37    67	 9 ;      CG331      CG301      CG331       HGA3
   31    35    37    65	 9 ;     CG2R51      CG301      CG331       HGA3
   31    35    37    66	 9 ;     CG2R51      CG301      CG331       HGA3
   31    35    37    67	 9 ;     CG2R51      CG301      CG331       HGA3
   38    35    37    65	 9 ;      CG331      CG301      CG331       HGA3
   38    35    37    66	 9 ;      CG331      CG301      CG331       HGA3
   38    35    37    67	 9 ;      CG331      CG301      CG331       HGA3
   37    35    36    62	 9 ;      CG331      CG301      CG331       HGA3
   37    35    36    63	 9 ;      CG331      CG301      CG331       HGA3
   37    35    36    64	 9 ;      CG331      CG301      CG331       HGA3
   31    35    36    62	 9 ;     CG2R51      CG301      CG331       HGA3
   31    35    36    63	 9 ;     CG2R51      CG301      CG331       HGA3
   31    35    36    64	 9 ;     CG2R51      CG301      CG331       HGA3
   38    35    36    62	 9 ;      CG331      CG301      CG331       HGA3
   38    35    36    63	 9 ;      CG331      CG301      CG331       HGA3
   38    35    36    64	 9 ;      CG331      CG301      CG331       HGA3
   37    35    38    68	 9 ;      CG331      CG301      CG331       HGA3
   37    35    38    69	 9 ;      CG331      CG301      CG331       HGA3
   37    35    38    70	 9 ;      CG331      CG301      CG331       HGA3
   36    35    38    68	 9 ;      CG331      CG301      CG331       HGA3
   36    35    38    69	 9 ;      CG331      CG301      CG331       HGA3
   36    35    38    70	 9 ;      CG331      CG301      CG331       HGA3
   31    35    38    68	 9 ;     CG2R51      CG301      CG331       HGA3
   31    35    38    69	 9 ;     CG2R51      CG301      CG331       HGA3
   31    35    38    70	 9 ;     CG2R51      CG301      CG331       HGA3

[ dihedrals ]
;	ai	  aj	ak	  al funct			  c0			c1			  c2			c3
   14    16    13    15	 2

