; Created by cgenff_charmm2gmx.py

[ moleculetype ]
; Name			   nrexcl
LIG				 3

[ atoms ]
;	 nr		  type	resnr residue  atom   cgnr	   charge		mass  typeB    chargeB		massB
; residue	 1 LIG rtp LIG q	qsum
     1      CG311      1    LIG     CA      1      0.170     12.011   ;
     2      CG2O2      1    LIG     C1      2      0.772     12.011   ;
     3      OG311      1    LIG      O      3     -0.496     15.999   ;
     4      OG2D1      1    LIG    OXT      4     -0.544     15.999   ;
     5      CG321      1    LIG     C2      5     -0.322     12.011   ;
     6     CG2R51      1    LIG     C3      6      0.307     12.011   ;
     7     CG2R51      1    LIG     C4      7     -0.426     12.011   ;
     8     SG2R50      1    LIG      S      8     -0.025     32.060   ;
     9     CG2R51      1    LIG     C5      9     -0.261     12.011   ;
    10     CG2R57      1    LIG     C6     10      0.202     12.011   ;
    11     CG3C51      1    LIG     C7     11      0.004     12.011   ;
    12     NG3C51      1    LIG     N1     12     -0.537     14.007   ;
    13     NG3C51      1    LIG     N2     13     -0.336     14.007   ;
    14       HGP1      1    LIG    HN1     14      0.340      1.008   ;
    15     CG2R51      1    LIG     C8     15     -0.010     12.011   ;
    16       HGP1      1    LIG     H1     16      0.305      1.008   ;
    17     CG2R51      1    LIG     C9     17     -0.505     12.011   ;
    18      NG311      1    LIG     N3     18     -0.798     14.007   ;
    19     HGPAM1      1    LIG     H2     19      0.362      1.008   ;
    20      CG311      1    LIG    C10     20      0.346     12.011   ;
    21      NG311      1    LIG     N4     21     -0.864     14.007   ;
    22      CG301      1    LIG    C11     22      0.375     12.011   ;
    23     HGPAM1      1    LIG    HN2     23      0.350      1.008   ;
    24      CG321      1    LIG    C12     24     -0.230     12.011   ;
    25      CG331      1    LIG    C13     25     -0.295     12.011   ;
    26      CG331      1    LIG    C14     26     -0.295     12.011   ;
    27     CG2R61      1    LIG    C15     27      0.075     12.011   ;
    28     CG2R61      1    LIG    C16     28     -0.121     12.011   ;
    29     CG2R61      1    LIG    C17     29     -0.052     12.011   ;
    30     CG2R61      1    LIG    C18     30      0.048     12.011   ;
    31      CLGR1      1    LIG     CL     31     -0.200     35.453   ;
    32     CG2R61      1    LIG    C19     32     -0.099     12.011   ;
    33     CG2R61      1    LIG    C20     33     -0.108     12.011   ;
    34       HGA1      1    LIG     HA     34      0.090      1.008   ;
    35       HGP1      1    LIG    HXT     35      0.314      1.008   ;
    36       HGA2      1    LIG     H3     36      0.090      1.008   ;
    37       HGA2      1    LIG     H4     37      0.090      1.008   ;
    38      HGR52      1    LIG     H5     38      0.200      1.008   ;
    39      HGR52      1    LIG     H6     39      0.191      1.008   ;
    40       HGA1      1    LIG     H7     40      0.116      1.008   ;
    41      HGR52      1    LIG     H8     41      0.175      1.008   ;
    42      HGR51      1    LIG     H9     42      0.331      1.008   ;
    43       HGA1      1    LIG    H10     43      0.090      1.008   ;
    44       HGA2      1    LIG    H11     44      0.090      1.008   ;
    45       HGA2      1    LIG    H12     45      0.090      1.008   ;
    46       HGA3      1    LIG    H13     46      0.090      1.008   ;
    47       HGA3      1    LIG    H14     47      0.090      1.008   ;
    48       HGA3      1    LIG    H15     48      0.090      1.008   ;
    49       HGA3      1    LIG    H16     49      0.090      1.008   ;
    50       HGA3      1    LIG    H17     50      0.090      1.008   ;
    51       HGA3      1    LIG    H18     51      0.090      1.008   ;
    52      HGR62      1    LIG    H19     52      0.145      1.008   ;
    53      HGR62      1    LIG    H20     53      0.150      1.008   ;
    54      HGR61      1    LIG    H21     54      0.116      1.008   ;
    55        LPH      1    LIG    LP1     55      0.050      0.000   ;

[ bonds ]
;	ai	  aj funct			  c0			c1			  c2			c3
    1    18	 1 ;       CG311      NG311
    1     2	 1 ;       CG311      CG2O2
    1     5	 1 ;       CG311      CG321
    1    34	 1 ;       CG311       HGA1
    2     4	 1 ;       CG2O2      OG2D1
    2     3	 1 ;       CG2O2      OG311
    3    35	 1 ;       OG311       HGP1
    5     6	 1 ;       CG321     CG2R51
    5    36	 1 ;       CG321       HGA2
    5    37	 1 ;       CG321       HGA2
    6     7	 1 ;      CG2R51     CG2R51
    6    10	 1 ;      CG2R51     CG2R57
    7     8	 1 ;      CG2R51     SG2R50
    7    38	 1 ;      CG2R51      HGR52
    8     9	 1 ;      SG2R50     CG2R51
    9    10	 1 ;      CG2R51     CG2R57
    9    39	 1 ;      CG2R51      HGR52
   10    11	 1 ;      CG2R57     CG3C51
   11    12	 1 ;      CG3C51     NG3C51
   11    17	 1 ;      CG3C51     CG2R51
   11    40	 1 ;      CG3C51       HGA1
   12    14	 1 ;      NG3C51       HGP1
   12    13	 1 ;      NG3C51     NG3C51
   13    16	 1 ;      NG3C51       HGP1
   13    15	 1 ;      NG3C51     CG2R51
   15    17	 1 ;      CG2R51     CG2R51
   15    41	 1 ;      CG2R51      HGR52
   17    42	 1 ;      CG2R51      HGR51
   18    20	 1 ;       NG311      CG311
   18    19	 1 ;       NG311     HGPAM1
   20    21	 1 ;       CG311      NG311
   20    29	 1 ;       CG311     CG2R61
   20    43	 1 ;       CG311       HGA1
   21    22	 1 ;       NG311      CG301
   21    23	 1 ;       NG311     HGPAM1
   22    26	 1 ;       CG301      CG331
   22    25	 1 ;       CG301      CG331
   22    24	 1 ;       CG301      CG321
   24    27	 1 ;       CG321     CG2R61
   24    44	 1 ;       CG321       HGA2
   24    45	 1 ;       CG321       HGA2
   25    46	 1 ;       CG331       HGA3
   25    47	 1 ;       CG331       HGA3
   25    48	 1 ;       CG331       HGA3
   26    49	 1 ;       CG331       HGA3
   26    50	 1 ;       CG331       HGA3
   26    51	 1 ;       CG331       HGA3
   27    28	 1 ;      CG2R61     CG2R61
   27    29	 1 ;      CG2R61     CG2R61
   28    30	 1 ;      CG2R61     CG2R61
   28    52	 1 ;      CG2R61      HGR62
   29    33	 1 ;      CG2R61     CG2R61
   30    31	 1 ;      CG2R61      CLGR1
   30    32	 1 ;      CG2R61     CG2R61
   32    33	 1 ;      CG2R61     CG2R61
   32    53	 1 ;      CG2R61      HGR62
   33    54	 1 ;      CG2R61      HGR61

[ pairs ]
;	ai	  aj funct			  c0			c1			  c2			c3
    1    35	 1
    1     7	 1
    1    10	 1
    1    21	 1
    1    29	 1
    1    43	 1
    2    20	 1
    2    19	 1
    2     6	 1
    2    36	 1
    2    37	 1
    3    18	 1
    3     5	 1
    3    34	 1
    4    18	 1
    4     5	 1
    4    34	 1
    4    35	 1
    5    20	 1
    5    19	 1
    5     8	 1
    5    38	 1
    5     9	 1
    5    11	 1
    6    18	 1
    6    34	 1
    6    39	 1
    6    12	 1
    6    17	 1
    6    40	 1
    7    36	 1
    7    37	 1
    7    11	 1
    7    39	 1
    8    11	 1
    9    38	 1
    9    12	 1
    9    17	 1
    9    40	 1
   10    36	 1
   10    37	 1
   10    38	 1
   10    14	 1
   10    13	 1
   10    15	 1
   10    42	 1
   11    39	 1
   11    16	 1
   11    41	 1
   12    42	 1
   12    41	 1
   13    40	 1
   13    42	 1
   14    17	 1
   14    40	 1
   14    16	 1
   14    15	 1
   15    40	 1
   16    17	 1
   16    41	 1
   18    36	 1
   18    37	 1
   18    22	 1
   18    23	 1
   18    27	 1
   18    33	 1
   19    34	 1
   19    21	 1
   19    29	 1
   19    43	 1
   20    34	 1
   20    26	 1
   20    25	 1
   20    24	 1
   20    28	 1
   20    32	 1
   20    54	 1
   21    27	 1
   21    33	 1
   21    49	 1
   21    50	 1
   21    51	 1
   21    46	 1
   21    47	 1
   21    48	 1
   21    44	 1
   21    45	 1
   22    29	 1
   22    43	 1
   22    28	 1
   23    29	 1
   23    43	 1
   23    26	 1
   23    25	 1
   23    24	 1
   24    49	 1
   24    50	 1
   24    51	 1
   24    46	 1
   24    47	 1
   24    48	 1
   24    30	 1
   24    52	 1
   24    33	 1
   25    49	 1
   25    50	 1
   25    51	 1
   25    27	 1
   25    44	 1
   25    45	 1
   26    46	 1
   26    47	 1
   26    48	 1
   26    27	 1
   26    44	 1
   26    45	 1
   27    43	 1
   27    31	 1
   55    27	 1
   27    32	 1
   27    54	 1
   28    44	 1
   28    45	 1
   28    33	 1
   28    53	 1
   29    44	 1
   29    45	 1
   29    30	 1
   29    52	 1
   29    53	 1
   30    54	 1
   31    52	 1
   55    52	 1
   31    33	 1
   55    33	 1
   31    53	 1
   55    53	 1
   32    52	 1
   33    43	 1
   34    36	 1
   34    37	 1
   40    42	 1
   41    42	 1
   53    54	 1

[ angles ]
;	ai	  aj	ak funct			c0			  c1			c2			  c3
   18     1     2	5 ;      NG311      CG311      CG2O2
   18     1     5	5 ;      NG311      CG311      CG321
   18     1    34	5 ;      NG311      CG311       HGA1
    2     1     5	5 ;      CG2O2      CG311      CG321
    2     1    34	5 ;      CG2O2      CG311       HGA1
    5     1    34	5 ;      CG321      CG311       HGA1
    4     2     1	5 ;      OG2D1      CG2O2      CG311
    4     2     3	5 ;      OG2D1      CG2O2      OG311
    1     2     3	5 ;      CG311      CG2O2      OG311
    2     3    35	5 ;      CG2O2      OG311       HGP1
    1     5     6	5 ;      CG311      CG321     CG2R51
    1     5    36	5 ;      CG311      CG321       HGA2
    1     5    37	5 ;      CG311      CG321       HGA2
    6     5    36	5 ;     CG2R51      CG321       HGA2
    6     5    37	5 ;     CG2R51      CG321       HGA2
   36     5    37	5 ;       HGA2      CG321       HGA2
    7     6     5	5 ;     CG2R51     CG2R51      CG321
    7     6    10	5 ;     CG2R51     CG2R51     CG2R57
    5     6    10	5 ;      CG321     CG2R51     CG2R57
    8     7     6	5 ;     SG2R50     CG2R51     CG2R51
    8     7    38	5 ;     SG2R50     CG2R51      HGR52
    6     7    38	5 ;     CG2R51     CG2R51      HGR52
    7     8     9	5 ;     CG2R51     SG2R50     CG2R51
    8     9    10	5 ;     SG2R50     CG2R51     CG2R57
    8     9    39	5 ;     SG2R50     CG2R51      HGR52
   10     9    39	5 ;     CG2R57     CG2R51      HGR52
    6    10     9	5 ;     CG2R51     CG2R57     CG2R51
    6    10    11	5 ;     CG2R51     CG2R57     CG3C51
    9    10    11	5 ;     CG2R51     CG2R57     CG3C51
   10    11    12	5 ;     CG2R57     CG3C51     NG3C51
   10    11    17	5 ;     CG2R57     CG3C51     CG2R51
   10    11    40	5 ;     CG2R57     CG3C51       HGA1
   12    11    17	5 ;     NG3C51     CG3C51     CG2R51
   12    11    40	5 ;     NG3C51     CG3C51       HGA1
   17    11    40	5 ;     CG2R51     CG3C51       HGA1
   14    12    11	5 ;       HGP1     NG3C51     CG3C51
   14    12    13	5 ;       HGP1     NG3C51     NG3C51
   11    12    13	5 ;     CG3C51     NG3C51     NG3C51
   12    13    16	5 ;     NG3C51     NG3C51       HGP1
   12    13    15	5 ;     NG3C51     NG3C51     CG2R51
   16    13    15	5 ;       HGP1     NG3C51     CG2R51
   17    15    13	5 ;     CG2R51     CG2R51     NG3C51
   17    15    41	5 ;     CG2R51     CG2R51      HGR52
   13    15    41	5 ;     NG3C51     CG2R51      HGR52
   11    17    15	5 ;     CG3C51     CG2R51     CG2R51
   11    17    42	5 ;     CG3C51     CG2R51      HGR51
   15    17    42	5 ;     CG2R51     CG2R51      HGR51
   20    18    19	5 ;      CG311      NG311     HGPAM1
   20    18     1	5 ;      CG311      NG311      CG311
   19    18     1	5 ;     HGPAM1      NG311      CG311
   21    20    29	5 ;      NG311      CG311     CG2R61
   21    20    18	5 ;      NG311      CG311      NG311
   21    20    43	5 ;      NG311      CG311       HGA1
   29    20    18	5 ;     CG2R61      CG311      NG311
   29    20    43	5 ;     CG2R61      CG311       HGA1
   18    20    43	5 ;      NG311      CG311       HGA1
   22    21    23	5 ;      CG301      NG311     HGPAM1
   22    21    20	5 ;      CG301      NG311      CG311
   23    21    20	5 ;     HGPAM1      NG311      CG311
   26    22    25	5 ;      CG331      CG301      CG331
   26    22    21	5 ;      CG331      CG301      NG311
   26    22    24	5 ;      CG331      CG301      CG321
   25    22    21	5 ;      CG331      CG301      NG311
   25    22    24	5 ;      CG331      CG301      CG321
   21    22    24	5 ;      NG311      CG301      CG321
   22    24    27	5 ;      CG301      CG321     CG2R61
   22    24    44	5 ;      CG301      CG321       HGA2
   22    24    45	5 ;      CG301      CG321       HGA2
   27    24    44	5 ;     CG2R61      CG321       HGA2
   27    24    45	5 ;     CG2R61      CG321       HGA2
   44    24    45	5 ;       HGA2      CG321       HGA2
   22    25    46	5 ;      CG301      CG331       HGA3
   22    25    47	5 ;      CG301      CG331       HGA3
   22    25    48	5 ;      CG301      CG331       HGA3
   46    25    47	5 ;       HGA3      CG331       HGA3
   46    25    48	5 ;       HGA3      CG331       HGA3
   47    25    48	5 ;       HGA3      CG331       HGA3
   22    26    49	5 ;      CG301      CG331       HGA3
   22    26    50	5 ;      CG301      CG331       HGA3
   22    26    51	5 ;      CG301      CG331       HGA3
   49    26    50	5 ;       HGA3      CG331       HGA3
   49    26    51	5 ;       HGA3      CG331       HGA3
   50    26    51	5 ;       HGA3      CG331       HGA3
   28    27    24	5 ;     CG2R61     CG2R61      CG321
   28    27    29	5 ;     CG2R61     CG2R61     CG2R61
   24    27    29	5 ;      CG321     CG2R61     CG2R61
   30    28    27	5 ;     CG2R61     CG2R61     CG2R61
   30    28    52	5 ;     CG2R61     CG2R61      HGR62
   27    28    52	5 ;     CG2R61     CG2R61      HGR62
   27    29    33	5 ;     CG2R61     CG2R61     CG2R61
   27    29    20	5 ;     CG2R61     CG2R61      CG311
   33    29    20	5 ;     CG2R61     CG2R61      CG311
   31    30    28	5 ;      CLGR1     CG2R61     CG2R61
   31    30    32	5 ;      CLGR1     CG2R61     CG2R61
   28    30    32	5 ;     CG2R61     CG2R61     CG2R61
   30    32    33	5 ;     CG2R61     CG2R61     CG2R61
   30    32    53	5 ;     CG2R61     CG2R61      HGR62
   33    32    53	5 ;     CG2R61     CG2R61      HGR62
   32    33    29	5 ;     CG2R61     CG2R61     CG2R61
   32    33    54	5 ;     CG2R61     CG2R61      HGR61
   29    33    54	5 ;     CG2R61     CG2R61      HGR61

[ dihedrals ]
;	ai	  aj	ak	  al funct			  c0			c1			  c2			c3			  c4			c5
    2     1    18    20	 9 ;      CG2O2      CG311      NG311      CG311
    2     1    18    19	 9 ;      CG2O2      CG311      NG311     HGPAM1
    5     1    18    20	 9 ;      CG321      CG311      NG311      CG311
    5     1    18    19	 9 ;      CG321      CG311      NG311     HGPAM1
   34     1    18    20	 9 ;       HGA1      CG311      NG311      CG311
   34     1    18    19	 9 ;       HGA1      CG311      NG311     HGPAM1
   18     1     2     4	 9 ;      NG311      CG311      CG2O2      OG2D1
   18     1     2     3	 9 ;      NG311      CG311      CG2O2      OG311
    5     1     2     4	 9 ;      CG321      CG311      CG2O2      OG2D1
    5     1     2     3	 9 ;      CG321      CG311      CG2O2      OG311
   34     1     2     4	 9 ;       HGA1      CG311      CG2O2      OG2D1
   34     1     2     3	 9 ;       HGA1      CG311      CG2O2      OG311
   18     1     5     6	 9 ;      NG311      CG311      CG321     CG2R51
   18     1     5    36	 9 ;      NG311      CG311      CG321       HGA2
   18     1     5    37	 9 ;      NG311      CG311      CG321       HGA2
    2     1     5     6	 9 ;      CG2O2      CG311      CG321     CG2R51
    2     1     5    36	 9 ;      CG2O2      CG311      CG321       HGA2
    2     1     5    37	 9 ;      CG2O2      CG311      CG321       HGA2
   34     1     5     6	 9 ;       HGA1      CG311      CG321     CG2R51
   34     1     5    36	 9 ;       HGA1      CG311      CG321       HGA2
   34     1     5    37	 9 ;       HGA1      CG311      CG321       HGA2
    4     2     3    35	 9 ;      OG2D1      CG2O2      OG311       HGP1
    1     2     3    35	 9 ;      CG311      CG2O2      OG311       HGP1
    1     5     6     7	 9 ;      CG311      CG321     CG2R51     CG2R51
    1     5     6    10	 9 ;      CG311      CG321     CG2R51     CG2R57
   36     5     6     7	 9 ;       HGA2      CG321     CG2R51     CG2R51
   36     5     6    10	 9 ;       HGA2      CG321     CG2R51     CG2R57
   37     5     6     7	 9 ;       HGA2      CG321     CG2R51     CG2R51
   37     5     6    10	 9 ;       HGA2      CG321     CG2R51     CG2R57
    5     6     7     8	 9 ;      CG321     CG2R51     CG2R51     SG2R50
    5     6     7    38	 9 ;      CG321     CG2R51     CG2R51      HGR52
   10     6     7     8	 9 ;     CG2R57     CG2R51     CG2R51     SG2R50
   10     6     7    38	 9 ;     CG2R57     CG2R51     CG2R51      HGR52
    7     6    10     9	 9 ;     CG2R51     CG2R51     CG2R57     CG2R51
    7     6    10    11	 9 ;     CG2R51     CG2R51     CG2R57     CG3C51
    5     6    10     9	 9 ;      CG321     CG2R51     CG2R57     CG2R51
    5     6    10    11	 9 ;      CG321     CG2R51     CG2R57     CG3C51
    6     7     8     9	 9 ;     CG2R51     CG2R51     SG2R50     CG2R51
   38     7     8     9	 9 ;      HGR52     CG2R51     SG2R50     CG2R51
    7     8     9    10	 9 ;     CG2R51     SG2R50     CG2R51     CG2R57
    7     8     9    39	 9 ;     CG2R51     SG2R50     CG2R51      HGR52
    8     9    10     6	 9 ;     SG2R50     CG2R51     CG2R57     CG2R51
    8     9    10    11	 9 ;     SG2R50     CG2R51     CG2R57     CG3C51
   39     9    10     6	 9 ;      HGR52     CG2R51     CG2R57     CG2R51
   39     9    10    11	 9 ;      HGR52     CG2R51     CG2R57     CG3C51
    6    10    11    12	 9 ;     CG2R51     CG2R57     CG3C51     NG3C51
    6    10    11    17	 9 ;     CG2R51     CG2R57     CG3C51     CG2R51
    6    10    11    40	 9 ;     CG2R51     CG2R57     CG3C51       HGA1
    9    10    11    12	 9 ;     CG2R51     CG2R57     CG3C51     NG3C51
    9    10    11    17	 9 ;     CG2R51     CG2R57     CG3C51     CG2R51
    9    10    11    40	 9 ;     CG2R51     CG2R57     CG3C51       HGA1
   10    11    12    14	 9 ;     CG2R57     CG3C51     NG3C51       HGP1
   10    11    12    13	 9 ;     CG2R57     CG3C51     NG3C51     NG3C51
   17    11    12    14	 9 ;     CG2R51     CG3C51     NG3C51       HGP1
   17    11    12    13	 9 ;     CG2R51     CG3C51     NG3C51     NG3C51
   40    11    12    14	 9 ;       HGA1     CG3C51     NG3C51       HGP1
   40    11    12    13	 9 ;       HGA1     CG3C51     NG3C51     NG3C51
   10    11    17    15	 9 ;     CG2R57     CG3C51     CG2R51     CG2R51
   10    11    17    42	 9 ;     CG2R57     CG3C51     CG2R51      HGR51
   12    11    17    15	 9 ;     NG3C51     CG3C51     CG2R51     CG2R51
   12    11    17    42	 9 ;     NG3C51     CG3C51     CG2R51      HGR51
   40    11    17    15	 9 ;       HGA1     CG3C51     CG2R51     CG2R51
   40    11    17    42	 9 ;       HGA1     CG3C51     CG2R51      HGR51
   14    12    13    16	 9 ;       HGP1     NG3C51     NG3C51       HGP1
   14    12    13    15	 9 ;       HGP1     NG3C51     NG3C51     CG2R51
   11    12    13    16	 9 ;     CG3C51     NG3C51     NG3C51       HGP1
   11    12    13    15	 9 ;     CG3C51     NG3C51     NG3C51     CG2R51
   12    13    15    17	 9 ;     NG3C51     NG3C51     CG2R51     CG2R51
   12    13    15    41	 9 ;     NG3C51     NG3C51     CG2R51      HGR52
   16    13    15    17	 9 ;       HGP1     NG3C51     CG2R51     CG2R51
   16    13    15    41	 9 ;       HGP1     NG3C51     CG2R51      HGR52
   13    15    17    11	 9 ;     NG3C51     CG2R51     CG2R51     CG3C51
   13    15    17    42	 9 ;     NG3C51     CG2R51     CG2R51      HGR51
   41    15    17    11	 9 ;      HGR52     CG2R51     CG2R51     CG3C51
   41    15    17    42	 9 ;      HGR52     CG2R51     CG2R51      HGR51
   19    18    20    21	 9 ;     HGPAM1      NG311      CG311      NG311
   19    18    20    29	 9 ;     HGPAM1      NG311      CG311     CG2R61
   19    18    20    43	 9 ;     HGPAM1      NG311      CG311       HGA1
    1    18    20    21	 9 ;      CG311      NG311      CG311      NG311
    1    18    20    29	 9 ;      CG311      NG311      CG311     CG2R61
    1    18    20    43	 9 ;      CG311      NG311      CG311       HGA1
   29    20    21    22	 9 ;     CG2R61      CG311      NG311      CG301
   29    20    21    23	 9 ;     CG2R61      CG311      NG311     HGPAM1
   18    20    21    22	 9 ;      NG311      CG311      NG311      CG301
   18    20    21    23	 9 ;      NG311      CG311      NG311     HGPAM1
   43    20    21    22	 9 ;       HGA1      CG311      NG311      CG301
   43    20    21    23	 9 ;       HGA1      CG311      NG311     HGPAM1
   21    20    29    27	 9 ;      NG311      CG311     CG2R61     CG2R61
   21    20    29    33	 9 ;      NG311      CG311     CG2R61     CG2R61
   18    20    29    27	 9 ;      NG311      CG311     CG2R61     CG2R61
   18    20    29    33	 9 ;      NG311      CG311     CG2R61     CG2R61
   43    20    29    27	 9 ;       HGA1      CG311     CG2R61     CG2R61
   43    20    29    33	 9 ;       HGA1      CG311     CG2R61     CG2R61
   23    21    22    26	 9 ;     HGPAM1      NG311      CG301      CG331
   23    21    22    25	 9 ;     HGPAM1      NG311      CG301      CG331
   23    21    22    24	 9 ;     HGPAM1      NG311      CG301      CG321
   20    21    22    26	 9 ;      CG311      NG311      CG301      CG331
   20    21    22    25	 9 ;      CG311      NG311      CG301      CG331
   20    21    22    24	 9 ;      CG311      NG311      CG301      CG321
   25    22    26    49	 9 ;      CG331      CG301      CG331       HGA3
   25    22    26    50	 9 ;      CG331      CG301      CG331       HGA3
   25    22    26    51	 9 ;      CG331      CG301      CG331       HGA3
   21    22    26    49	 9 ;      NG311      CG301      CG331       HGA3
   21    22    26    50	 9 ;      NG311      CG301      CG331       HGA3
   21    22    26    51	 9 ;      NG311      CG301      CG331       HGA3
   24    22    26    49	 9 ;      CG321      CG301      CG331       HGA3
   24    22    26    50	 9 ;      CG321      CG301      CG331       HGA3
   24    22    26    51	 9 ;      CG321      CG301      CG331       HGA3
   26    22    25    46	 9 ;      CG331      CG301      CG331       HGA3
   26    22    25    47	 9 ;      CG331      CG301      CG331       HGA3
   26    22    25    48	 9 ;      CG331      CG301      CG331       HGA3
   21    22    25    46	 9 ;      NG311      CG301      CG331       HGA3
   21    22    25    47	 9 ;      NG311      CG301      CG331       HGA3
   21    22    25    48	 9 ;      NG311      CG301      CG331       HGA3
   24    22    25    46	 9 ;      CG321      CG301      CG331       HGA3
   24    22    25    47	 9 ;      CG321      CG301      CG331       HGA3
   24    22    25    48	 9 ;      CG321      CG301      CG331       HGA3
   26    22    24    27	 9 ;      CG331      CG301      CG321     CG2R61
   26    22    24    44	 9 ;      CG331      CG301      CG321       HGA2
   26    22    24    45	 9 ;      CG331      CG301      CG321       HGA2
   25    22    24    27	 9 ;      CG331      CG301      CG321     CG2R61
   25    22    24    44	 9 ;      CG331      CG301      CG321       HGA2
   25    22    24    45	 9 ;      CG331      CG301      CG321       HGA2
   21    22    24    27	 9 ;      NG311      CG301      CG321     CG2R61
   21    22    24    44	 9 ;      NG311      CG301      CG321       HGA2
   21    22    24    45	 9 ;      NG311      CG301      CG321       HGA2
   22    24    27    28	 9 ;      CG301      CG321     CG2R61     CG2R61
   22    24    27    29	 9 ;      CG301      CG321     CG2R61     CG2R61
   44    24    27    28	 9 ;       HGA2      CG321     CG2R61     CG2R61
   44    24    27    29	 9 ;       HGA2      CG321     CG2R61     CG2R61
   45    24    27    28	 9 ;       HGA2      CG321     CG2R61     CG2R61
   45    24    27    29	 9 ;       HGA2      CG321     CG2R61     CG2R61
   24    27    28    30	 9 ;      CG321     CG2R61     CG2R61     CG2R61
   24    27    28    52	 9 ;      CG321     CG2R61     CG2R61      HGR62
   29    27    28    30	 9 ;     CG2R61     CG2R61     CG2R61     CG2R61
   29    27    28    52	 9 ;     CG2R61     CG2R61     CG2R61      HGR62
   28    27    29    33	 9 ;     CG2R61     CG2R61     CG2R61     CG2R61
   28    27    29    20	 9 ;     CG2R61     CG2R61     CG2R61      CG311
   24    27    29    33	 9 ;      CG321     CG2R61     CG2R61     CG2R61
   24    27    29    20	 9 ;      CG321     CG2R61     CG2R61      CG311
   27    28    30    31	 9 ;     CG2R61     CG2R61     CG2R61      CLGR1
   27    28    30    32	 9 ;     CG2R61     CG2R61     CG2R61     CG2R61
   52    28    30    31	 9 ;      HGR62     CG2R61     CG2R61      CLGR1
   52    28    30    32	 9 ;      HGR62     CG2R61     CG2R61     CG2R61
   27    29    33    32	 9 ;     CG2R61     CG2R61     CG2R61     CG2R61
   27    29    33    54	 9 ;     CG2R61     CG2R61     CG2R61      HGR61
   20    29    33    32	 9 ;      CG311     CG2R61     CG2R61     CG2R61
   20    29    33    54	 9 ;      CG311     CG2R61     CG2R61      HGR61
   31    30    32    33	 9 ;      CLGR1     CG2R61     CG2R61     CG2R61
   31    30    32    53	 9 ;      CLGR1     CG2R61     CG2R61      HGR62
   28    30    32    33	 9 ;     CG2R61     CG2R61     CG2R61     CG2R61
   28    30    32    53	 9 ;     CG2R61     CG2R61     CG2R61      HGR62
   30    32    33    29	 9 ;     CG2R61     CG2R61     CG2R61     CG2R61
   30    32    33    54	 9 ;     CG2R61     CG2R61     CG2R61      HGR61
   53    32    33    29	 9 ;      HGR62     CG2R61     CG2R61     CG2R61
   53    32    33    54	 9 ;      HGR62     CG2R61     CG2R61      HGR61

[ dihedrals ]
;	ai	  aj	ak	  al funct			  c0			c1			  c2			c3
    2     1     4     3	 2

[ virtual_sites2 ]
; Site   from				funct a
   55    31    30     2   -0.164

[ exclusions ]
;	ai	  aj
   31    55
   55    30
   55    28
   55    32
   55    27
   55    52
   55    33
   55    53

