God Rules Over Mankind, Animals, Cosmos and Such
   55
    1LIG     CA    1  -1.526   0.358  -1.464
    1LIG     C1    2  -1.563   0.508  -1.436
    1LIG      O    3  -1.525   0.557  -1.326
    1LIG    OXT    4  -1.625   0.565  -1.532
    1LIG     C2    5  -1.631   0.261  -1.407
    1LIG     C3    6  -1.766   0.314  -1.362
    1LIG     C4    7  -1.877   0.331  -1.444
    1LIG      S    8  -2.011   0.403  -1.367
    1LIG     C5    9  -1.926   0.412  -1.220
    1LIG     C6   10  -1.800   0.356  -1.227
    1LIG     C7   11  -1.714   0.343  -1.108
    1LIG     N1   12  -1.598   0.407  -1.087
    1LIG     N2   13  -1.559   0.364  -0.966
    1LIG    HN1   14  -1.550   0.472  -1.149
    1LIG     C8   15  -1.645   0.275  -0.908
    1LIG     H1   16  -1.472   0.400  -0.929
    1LIG     C9   17  -1.747   0.259  -0.998
    1LIG     N3   18  -1.502   0.342  -1.609
    1LIG     H2   19  -1.593   0.341  -1.656
    1LIG    C10   20  -1.388   0.379  -1.677
    1LIG     N4   21  -1.377   0.496  -1.732
    1LIG    C11   22  -1.248   0.536  -1.791
    1LIG    HN2   23  -1.457   0.559  -1.733
    1LIG    C12   24  -1.132   0.482  -1.706
    1LIG    C13   25  -1.245   0.689  -1.790
    1LIG    C14   26  -1.239   0.488  -1.938
    1LIG    C15   27  -1.145   0.333  -1.697
    1LIG    C16   28  -1.035   0.248  -1.711
    1LIG    C17   29  -1.274   0.280  -1.682
    1LIG    C18   30  -1.056   0.109  -1.714
    1LIG     CL   31  -0.922   0.004  -1.741
    1LIG    C19   32  -1.184   0.057  -1.700
    1LIG    C20   33  -1.294   0.142  -1.682
    1LIG     HA   34  -1.436   0.332  -1.412
    1LIG    HXT   35  -1.480   0.503  -1.264
    1LIG     H3   36  -1.587   0.213  -1.322
    1LIG     H4   37  -1.655   0.198  -1.490
    1LIG     H5   38  -1.879   0.302  -1.543
    1LIG     H6   39  -1.965   0.454  -1.135
    1LIG     H7   40  -1.750   0.367  -1.206
    1LIG     H8   41  -1.636   0.230  -0.816
    1LIG     H9   42  -1.831   0.199  -0.989
    1LIG    H10   43  -1.426   0.416  -1.769
    1LIG    H11   44  -1.135   0.525  -1.608
    1LIG    H12   45  -1.038   0.508  -1.751
    1LIG    H13   46  -1.327   0.727  -1.849
    1LIG    H14   47  -1.153   0.723  -1.831
    1LIG    H15   48  -1.255   0.724  -1.689
    1LIG    H16   49  -1.321   0.527  -1.993
    1LIG    H17   50  -1.241   0.381  -1.941
    1LIG    H18   51  -1.147   0.523  -1.980
    1LIG    H19   52  -0.940   0.286  -1.719
    1LIG    H20   53  -1.198  -0.045  -1.703
    1LIG    H21   54  -1.388   0.103  -1.670
    1LIG    LP1   55  -0.795  -0.096  -1.766
   0.00000   0.00000   0.00000
