; Created by cgenff_charmm2gmx.py

[ moleculetype ]
; Name			   nrexcl
LIG				 3

[ atoms ]
;	 nr		  type	resnr residue  atom   cgnr	   charge		mass  typeB    chargeB		massB
; residue	 1 LIG rtp LIG q	qsum
     1     NG2R53      1    LIG     N1      1     -0.199     14.007   ;
     2     CG2R53      1    LIG     C1      2     -0.408     12.011   ;
     3      OG2D1      1    LIG      O      3     -0.317     15.999   ;
     4     CG3C50      1    LIG     C2      4      1.379     12.011   ;
     5      NG3P2      1    LIG     N2      5     -0.588     14.007   ;
     6       HGP2      1    LIG     HN      6      0.336      1.008   ;
     7     CG3C53      1    LIG     C3      7      0.827     12.011   ;
     8     CG2R61      1    LIG     C4      8     -0.215     12.011   ;
     9     CG2R61      1    LIG     C5      9     -0.131     12.011   ;
    10     CG2R61      1    LIG     C6     10     -0.105     12.011   ;
    11     CG2R61      1    LIG     C7     11     -0.116     12.011   ;
    12     CG2R61      1    LIG     C8     12     -0.105     12.011   ;
    13     CG2R61      1    LIG     C9     13     -0.131     12.011   ;
    14      CG311      1    LIG    C10     14     -0.044     12.011   ;
    15      CG321      1    LIG    C11     15     -0.129     12.011   ;
    16      CG321      1    LIG    C12     16     -0.241     12.011   ;
    17      CG321      1    LIG    C13     17     -0.154     12.011   ;
    18      CG321      1    LIG    C14     18     -0.241     12.011   ;
    19      CG321      1    LIG    C15     19     -0.129     12.011   ;
    20      CG321      1    LIG    C16     20     -0.126     12.011   ;
    21     CG2R61      1    LIG    C17     21      0.082     12.011   ;
    22     CG2R61      1    LIG    C18     22     -0.218     12.011   ;
    23     CG2R66      1    LIG    C19     23      0.261     12.011   ;
    24       FGR1      1    LIG     F1     24     -0.210     18.998   ;
    25     CG2R61      1    LIG    C20     25     -0.240     12.011   ;
    26     CG2R66      1    LIG    C21     26      0.261     12.011   ;
    27     CG2R61      1    LIG    C22     27     -0.218     12.011   ;
    28       FGR1      1    LIG     F2     28     -0.210     18.998   ;
    29      NG3P3      1    LIG     N3     29     -0.267     14.007   ;
    30       HGP2      1    LIG     H1     30      0.301      1.008   ;
    31       HGP2      1    LIG     H2     31      0.301      1.008   ;
    32       HGP2      1    LIG    HN2     32      0.336      1.008   ;
    33       HGA1      1    LIG     HC     33      0.073      1.008   ;
    34      HGR61      1    LIG    HC1     34      0.116      1.008   ;
    35      HGR61      1    LIG    HC2     35      0.116      1.008   ;
    36      HGR61      1    LIG    HC3     36      0.116      1.008   ;
    37      HGR61      1    LIG    HC4     37      0.116      1.008   ;
    38      HGR61      1    LIG    HC5     38      0.116      1.008   ;
    39       HGA1      1    LIG    HC6     39      0.090      1.008   ;
    40       HGA2      1    LIG    HC7     40      0.090      1.008   ;
    41       HGA2      1    LIG    HC8     41      0.090      1.008   ;
    42       HGA2      1    LIG    HC9     42      0.090      1.008   ;
    43       HGA2      1    LIG   HC10     43      0.090      1.008   ;
    44       HGA2      1    LIG   HC11     44      0.090      1.008   ;
    45       HGA2      1    LIG   HC12     45      0.090      1.008   ;
    46       HGA2      1    LIG   HC13     46      0.090      1.008   ;
    47       HGA2      1    LIG   HC14     47      0.090      1.008   ;
    48       HGA2      1    LIG   HC15     48      0.090      1.008   ;
    49       HGA2      1    LIG   HC16     49      0.090      1.008   ;
    50       HGA2      1    LIG   HC17     50      0.090      1.008   ;
    51       HGA2      1    LIG   HC18     51      0.090      1.008   ;
    52      HGR62      1    LIG   HC19     52      0.174      1.008   ;
    53      HGR62      1    LIG   HC20     53      0.186      1.008   ;
    54      HGR62      1    LIG   HC21     54      0.174      1.008   ;
    55       HGP2      1    LIG    HN1     55      0.301      1.008   ;

[ bonds ]
;	ai	  aj funct			  c0			c1			  c2			c3
    1    20	 1 ;      NG2R53      CG321
    1     2	 1 ;      NG2R53     CG2R53
    1     7	 1 ;      NG2R53     CG3C53
    2     3	 1 ;      CG2R53      OG2D1
    2     4	 1 ;      CG2R53     CG3C50
    4    14	 1 ;      CG3C50      CG311
    4     5	 1 ;      CG3C50      NG3P2
    4     8	 1 ;      CG3C50     CG2R61
    5     7	 1 ;       NG3P2     CG3C53
    5     6	 1 ;       NG3P2       HGP2
    5    32	 1 ;       NG3P2       HGP2
    7    29	 1 ;      CG3C53      NG3P3
    7    33	 1 ;      CG3C53       HGA1
    8    13	 1 ;      CG2R61     CG2R61
    8     9	 1 ;      CG2R61     CG2R61
    9    10	 1 ;      CG2R61     CG2R61
    9    34	 1 ;      CG2R61      HGR61
   10    11	 1 ;      CG2R61     CG2R61
   10    35	 1 ;      CG2R61      HGR61
   11    12	 1 ;      CG2R61     CG2R61
   11    36	 1 ;      CG2R61      HGR61
   12    13	 1 ;      CG2R61     CG2R61
   12    37	 1 ;      CG2R61      HGR61
   13    38	 1 ;      CG2R61      HGR61
   14    19	 1 ;       CG311      CG321
   14    15	 1 ;       CG311      CG321
   14    39	 1 ;       CG311       HGA1
   15    16	 1 ;       CG321      CG321
   15    40	 1 ;       CG321       HGA2
   15    41	 1 ;       CG321       HGA2
   16    17	 1 ;       CG321      CG321
   16    42	 1 ;       CG321       HGA2
   16    43	 1 ;       CG321       HGA2
   17    18	 1 ;       CG321      CG321
   17    44	 1 ;       CG321       HGA2
   17    45	 1 ;       CG321       HGA2
   18    19	 1 ;       CG321      CG321
   18    46	 1 ;       CG321       HGA2
   18    47	 1 ;       CG321       HGA2
   19    48	 1 ;       CG321       HGA2
   19    49	 1 ;       CG321       HGA2
   20    21	 1 ;       CG321     CG2R61
   20    50	 1 ;       CG321       HGA2
   20    51	 1 ;       CG321       HGA2
   21    27	 1 ;      CG2R61     CG2R61
   21    22	 1 ;      CG2R61     CG2R61
   22    23	 1 ;      CG2R61     CG2R66
   22    52	 1 ;      CG2R61      HGR62
   23    25	 1 ;      CG2R66     CG2R61
   23    24	 1 ;      CG2R66       FGR1
   25    26	 1 ;      CG2R61     CG2R66
   25    53	 1 ;      CG2R61      HGR62
   26    28	 1 ;      CG2R66       FGR1
   26    27	 1 ;      CG2R66     CG2R61
   27    54	 1 ;      CG2R61      HGR62
   29    31	 1 ;       NG3P3       HGP2
   29    30	 1 ;       NG3P3       HGP2
   29    55	 1 ;       NG3P3       HGP2

[ pairs ]
;	ai	  aj funct			  c0			c1			  c2			c3
    1    14	 1
    1     8	 1
    1     6	 1
    1    32	 1
    1    31	 1
    1    30	 1
    1    55	 1
    1    27	 1
    1    22	 1
    2    21	 1
    2    50	 1
    2    51	 1
    2    29	 1
    2    33	 1
    2    19	 1
    2    15	 1
    2    39	 1
    2     6	 1
    2    32	 1
    2    13	 1
    2     9	 1
    3    20	 1
    3     7	 1
    3    14	 1
    3     5	 1
    3     8	 1
    4    20	 1
    4    29	 1
    4    33	 1
    4    12	 1
    4    38	 1
    4    10	 1
    4    34	 1
    4    18	 1
    4    48	 1
    4    49	 1
    4    16	 1
    4    40	 1
    4    41	 1
    5    20	 1
    5    19	 1
    5    15	 1
    5    39	 1
    5    13	 1
    5     9	 1
    5    31	 1
    5    30	 1
    5    55	 1
    6    14	 1
    6     8	 1
    6    29	 1
    6    33	 1
    7    21	 1
    7    50	 1
    7    51	 1
    7    14	 1
    7     8	 1
    8    19	 1
    8    15	 1
    8    39	 1
    8    32	 1
    8    11	 1
    8    35	 1
    8    37	 1
    9    14	 1
    9    12	 1
    9    38	 1
    9    36	 1
   10    13	 1
   10    37	 1
   11    34	 1
   11    38	 1
   12    35	 1
   13    14	 1
   13    34	 1
   13    36	 1
   14    32	 1
   14    17	 1
   14    42	 1
   14    43	 1
   14    46	 1
   14    47	 1
   15    18	 1
   15    48	 1
   15    49	 1
   15    44	 1
   15    45	 1
   16    19	 1
   16    39	 1
   16    46	 1
   16    47	 1
   17    40	 1
   17    41	 1
   17    48	 1
   17    49	 1
   18    39	 1
   18    42	 1
   18    43	 1
   19    40	 1
   19    41	 1
   19    44	 1
   19    45	 1
   20    29	 1
   20    33	 1
   20    26	 1
   20    54	 1
   20    23	 1
   20    52	 1
   21    25	 1
   21    24	 1
   21    28	 1
   22    50	 1
   22    51	 1
   22    26	 1
   22    54	 1
   22    53	 1
   23    27	 1
   23    28	 1
   24    52	 1
   24    26	 1
   24    53	 1
   25    52	 1
   25    54	 1
   27    50	 1
   27    51	 1
   27    52	 1
   27    53	 1
   28    53	 1
   28    54	 1
   29    32	 1
   30    33	 1
   31    33	 1
   32    33	 1
   33    55	 1
   34    35	 1
   35    36	 1
   36    37	 1
   37    38	 1
   39    48	 1
   39    49	 1
   39    40	 1
   39    41	 1
   40    42	 1
   40    43	 1
   41    42	 1
   41    43	 1
   42    44	 1
   42    45	 1
   43    44	 1
   43    45	 1
   44    46	 1
   44    47	 1
   45    46	 1
   45    47	 1
   46    48	 1
   46    49	 1
   47    48	 1
   47    49	 1

[ angles ]
;	ai	  aj	ak funct			c0			  c1			c2			  c3
   20     1     2	5 ;      CG321     NG2R53     CG2R53
   20     1     7	5 ;      CG321     NG2R53     CG3C53
    2     1     7	5 ;     CG2R53     NG2R53     CG3C53
    3     2     1	5 ;      OG2D1     CG2R53     NG2R53
    3     2     4	5 ;      OG2D1     CG2R53     CG3C50
    1     2     4	5 ;     NG2R53     CG2R53     CG3C50
    2     4    14	5 ;     CG2R53     CG3C50      CG311
    2     4     5	5 ;     CG2R53     CG3C50      NG3P2
    2     4     8	5 ;     CG2R53     CG3C50     CG2R61
   14     4     5	5 ;      CG311     CG3C50      NG3P2
   14     4     8	5 ;      CG311     CG3C50     CG2R61
    5     4     8	5 ;      NG3P2     CG3C50     CG2R61
    7     5     4	5 ;     CG3C53      NG3P2     CG3C50
    7     5     6	5 ;     CG3C53      NG3P2       HGP2
    7     5    32	5 ;     CG3C53      NG3P2       HGP2
    4     5     6	5 ;     CG3C50      NG3P2       HGP2
    4     5    32	5 ;     CG3C50      NG3P2       HGP2
    6     5    32	5 ;       HGP2      NG3P2       HGP2
    1     7    29	5 ;     NG2R53     CG3C53      NG3P3
    1     7     5	5 ;     NG2R53     CG3C53      NG3P2
    1     7    33	5 ;     NG2R53     CG3C53       HGA1
   29     7     5	5 ;      NG3P3     CG3C53      NG3P2
   29     7    33	5 ;      NG3P3     CG3C53       HGA1
    5     7    33	5 ;      NG3P2     CG3C53       HGA1
    4     8    13	5 ;     CG3C50     CG2R61     CG2R61
    4     8     9	5 ;     CG3C50     CG2R61     CG2R61
   13     8     9	5 ;     CG2R61     CG2R61     CG2R61
    8     9    10	5 ;     CG2R61     CG2R61     CG2R61
    8     9    34	5 ;     CG2R61     CG2R61      HGR61
   10     9    34	5 ;     CG2R61     CG2R61      HGR61
    9    10    11	5 ;     CG2R61     CG2R61     CG2R61
    9    10    35	5 ;     CG2R61     CG2R61      HGR61
   11    10    35	5 ;     CG2R61     CG2R61      HGR61
   12    11    10	5 ;     CG2R61     CG2R61     CG2R61
   12    11    36	5 ;     CG2R61     CG2R61      HGR61
   10    11    36	5 ;     CG2R61     CG2R61      HGR61
   13    12    11	5 ;     CG2R61     CG2R61     CG2R61
   13    12    37	5 ;     CG2R61     CG2R61      HGR61
   11    12    37	5 ;     CG2R61     CG2R61      HGR61
    8    13    12	5 ;     CG2R61     CG2R61     CG2R61
    8    13    38	5 ;     CG2R61     CG2R61      HGR61
   12    13    38	5 ;     CG2R61     CG2R61      HGR61
   19    14     4	5 ;      CG321      CG311     CG3C50
   19    14    15	5 ;      CG321      CG311      CG321
   19    14    39	5 ;      CG321      CG311       HGA1
    4    14    15	5 ;     CG3C50      CG311      CG321
    4    14    39	5 ;     CG3C50      CG311       HGA1
   15    14    39	5 ;      CG321      CG311       HGA1
   14    15    16	5 ;      CG311      CG321      CG321
   14    15    40	5 ;      CG311      CG321       HGA2
   14    15    41	5 ;      CG311      CG321       HGA2
   16    15    40	5 ;      CG321      CG321       HGA2
   16    15    41	5 ;      CG321      CG321       HGA2
   40    15    41	5 ;       HGA2      CG321       HGA2
   17    16    15	5 ;      CG321      CG321      CG321
   17    16    42	5 ;      CG321      CG321       HGA2
   17    16    43	5 ;      CG321      CG321       HGA2
   15    16    42	5 ;      CG321      CG321       HGA2
   15    16    43	5 ;      CG321      CG321       HGA2
   42    16    43	5 ;       HGA2      CG321       HGA2
   18    17    16	5 ;      CG321      CG321      CG321
   18    17    44	5 ;      CG321      CG321       HGA2
   18    17    45	5 ;      CG321      CG321       HGA2
   16    17    44	5 ;      CG321      CG321       HGA2
   16    17    45	5 ;      CG321      CG321       HGA2
   44    17    45	5 ;       HGA2      CG321       HGA2
   19    18    17	5 ;      CG321      CG321      CG321
   19    18    46	5 ;      CG321      CG321       HGA2
   19    18    47	5 ;      CG321      CG321       HGA2
   17    18    46	5 ;      CG321      CG321       HGA2
   17    18    47	5 ;      CG321      CG321       HGA2
   46    18    47	5 ;       HGA2      CG321       HGA2
   18    19    14	5 ;      CG321      CG321      CG311
   18    19    48	5 ;      CG321      CG321       HGA2
   18    19    49	5 ;      CG321      CG321       HGA2
   14    19    48	5 ;      CG311      CG321       HGA2
   14    19    49	5 ;      CG311      CG321       HGA2
   48    19    49	5 ;       HGA2      CG321       HGA2
   21    20     1	5 ;     CG2R61      CG321     NG2R53
   21    20    50	5 ;     CG2R61      CG321       HGA2
   21    20    51	5 ;     CG2R61      CG321       HGA2
    1    20    50	5 ;     NG2R53      CG321       HGA2
    1    20    51	5 ;     NG2R53      CG321       HGA2
   50    20    51	5 ;       HGA2      CG321       HGA2
   27    21    22	5 ;     CG2R61     CG2R61     CG2R61
   27    21    20	5 ;     CG2R61     CG2R61      CG321
   22    21    20	5 ;     CG2R61     CG2R61      CG321
   23    22    21	5 ;     CG2R66     CG2R61     CG2R61
   23    22    52	5 ;     CG2R66     CG2R61      HGR62
   21    22    52	5 ;     CG2R61     CG2R61      HGR62
   25    23    24	5 ;     CG2R61     CG2R66       FGR1
   25    23    22	5 ;     CG2R61     CG2R66     CG2R61
   24    23    22	5 ;       FGR1     CG2R66     CG2R61
   26    25    23	5 ;     CG2R66     CG2R61     CG2R66
   26    25    53	5 ;     CG2R66     CG2R61      HGR62
   23    25    53	5 ;     CG2R66     CG2R61      HGR62
   28    26    25	5 ;       FGR1     CG2R66     CG2R61
   28    26    27	5 ;       FGR1     CG2R66     CG2R61
   25    26    27	5 ;     CG2R61     CG2R66     CG2R61
   26    27    21	5 ;     CG2R66     CG2R61     CG2R61
   26    27    54	5 ;     CG2R66     CG2R61      HGR62
   21    27    54	5 ;     CG2R61     CG2R61      HGR62
   31    29     7	5 ;       HGP2      NG3P3     CG3C53
   31    29    30	5 ;       HGP2      NG3P3       HGP2
   31    29    55	5 ;       HGP2      NG3P3       HGP2
    7    29    30	5 ;     CG3C53      NG3P3       HGP2
    7    29    55	5 ;     CG3C53      NG3P3       HGP2
   30    29    55	5 ;       HGP2      NG3P3       HGP2

[ dihedrals ]
;	ai	  aj	ak	  al funct			  c0			c1			  c2			c3			  c4			c5
    2     1    20    21	 9 ;     CG2R53     NG2R53      CG321     CG2R61
    2     1    20    50	 9 ;     CG2R53     NG2R53      CG321       HGA2
    2     1    20    51	 9 ;     CG2R53     NG2R53      CG321       HGA2
    7     1    20    21	 9 ;     CG3C53     NG2R53      CG321     CG2R61
    7     1    20    50	 9 ;     CG3C53     NG2R53      CG321       HGA2
    7     1    20    51	 9 ;     CG3C53     NG2R53      CG321       HGA2
   20     1     2     3	 9 ;      CG321     NG2R53     CG2R53      OG2D1
   20     1     2     4	 9 ;      CG321     NG2R53     CG2R53     CG3C50
    7     1     2     3	 9 ;     CG3C53     NG2R53     CG2R53      OG2D1
    7     1     2     4	 9 ;     CG3C53     NG2R53     CG2R53     CG3C50
   20     1     7    29	 9 ;      CG321     NG2R53     CG3C53      NG3P3
   20     1     7     5	 9 ;      CG321     NG2R53     CG3C53      NG3P2
   20     1     7    33	 9 ;      CG321     NG2R53     CG3C53       HGA1
    2     1     7    29	 9 ;     CG2R53     NG2R53     CG3C53      NG3P3
    2     1     7     5	 9 ;     CG2R53     NG2R53     CG3C53      NG3P2
    2     1     7    33	 9 ;     CG2R53     NG2R53     CG3C53       HGA1
    3     2     4    14	 9 ;      OG2D1     CG2R53     CG3C50      CG311
    3     2     4     5	 9 ;      OG2D1     CG2R53     CG3C50      NG3P2
    3     2     4     8	 9 ;      OG2D1     CG2R53     CG3C50     CG2R61
    1     2     4    14	 9 ;     NG2R53     CG2R53     CG3C50      CG311
    1     2     4     5	 9 ;     NG2R53     CG2R53     CG3C50      NG3P2
    1     2     4     8	 9 ;     NG2R53     CG2R53     CG3C50     CG2R61
    2     4    14    19	 9 ;     CG2R53     CG3C50      CG311      CG321
    2     4    14    15	 9 ;     CG2R53     CG3C50      CG311      CG321
    2     4    14    39	 9 ;     CG2R53     CG3C50      CG311       HGA1
    5     4    14    19	 9 ;      NG3P2     CG3C50      CG311      CG321
    5     4    14    15	 9 ;      NG3P2     CG3C50      CG311      CG321
    5     4    14    39	 9 ;      NG3P2     CG3C50      CG311       HGA1
    8     4    14    19	 9 ;     CG2R61     CG3C50      CG311      CG321
    8     4    14    15	 9 ;     CG2R61     CG3C50      CG311      CG321
    8     4    14    39	 9 ;     CG2R61     CG3C50      CG311       HGA1
    2     4     5     7	 9 ;     CG2R53     CG3C50      NG3P2     CG3C53
    2     4     5     6	 9 ;     CG2R53     CG3C50      NG3P2       HGP2
    2     4     5    32	 9 ;     CG2R53     CG3C50      NG3P2       HGP2
   14     4     5     7	 9 ;      CG311     CG3C50      NG3P2     CG3C53
   14     4     5     6	 9 ;      CG311     CG3C50      NG3P2       HGP2
   14     4     5    32	 9 ;      CG311     CG3C50      NG3P2       HGP2
    8     4     5     7	 9 ;     CG2R61     CG3C50      NG3P2     CG3C53
    8     4     5     6	 9 ;     CG2R61     CG3C50      NG3P2       HGP2
    8     4     5    32	 9 ;     CG2R61     CG3C50      NG3P2       HGP2
    2     4     8    13	 9 ;     CG2R53     CG3C50     CG2R61     CG2R61
    2     4     8     9	 9 ;     CG2R53     CG3C50     CG2R61     CG2R61
   14     4     8    13	 9 ;      CG311     CG3C50     CG2R61     CG2R61
   14     4     8     9	 9 ;      CG311     CG3C50     CG2R61     CG2R61
    5     4     8    13	 9 ;      NG3P2     CG3C50     CG2R61     CG2R61
    5     4     8     9	 9 ;      NG3P2     CG3C50     CG2R61     CG2R61
    4     5     7     1	 9 ;     CG3C50      NG3P2     CG3C53     NG2R53
    4     5     7    29	 9 ;     CG3C50      NG3P2     CG3C53      NG3P3
    4     5     7    33	 9 ;     CG3C50      NG3P2     CG3C53       HGA1
    6     5     7     1	 9 ;       HGP2      NG3P2     CG3C53     NG2R53
    6     5     7    29	 9 ;       HGP2      NG3P2     CG3C53      NG3P3
    6     5     7    33	 9 ;       HGP2      NG3P2     CG3C53       HGA1
   32     5     7     1	 9 ;       HGP2      NG3P2     CG3C53     NG2R53
   32     5     7    29	 9 ;       HGP2      NG3P2     CG3C53      NG3P3
   32     5     7    33	 9 ;       HGP2      NG3P2     CG3C53       HGA1
    1     7    29    31	 9 ;     NG2R53     CG3C53      NG3P3       HGP2
    1     7    29    30	 9 ;     NG2R53     CG3C53      NG3P3       HGP2
    1     7    29    55	 9 ;     NG2R53     CG3C53      NG3P3       HGP2
    5     7    29    31	 9 ;      NG3P2     CG3C53      NG3P3       HGP2
    5     7    29    30	 9 ;      NG3P2     CG3C53      NG3P3       HGP2
    5     7    29    55	 9 ;      NG3P2     CG3C53      NG3P3       HGP2
   33     7    29    31	 9 ;       HGA1     CG3C53      NG3P3       HGP2
   33     7    29    30	 9 ;       HGA1     CG3C53      NG3P3       HGP2
   33     7    29    55	 9 ;       HGA1     CG3C53      NG3P3       HGP2
    4     8    13    12	 9 ;     CG3C50     CG2R61     CG2R61     CG2R61
    4     8    13    38	 9 ;     CG3C50     CG2R61     CG2R61      HGR61
    9     8    13    12	 9 ;     CG2R61     CG2R61     CG2R61     CG2R61
    9     8    13    38	 9 ;     CG2R61     CG2R61     CG2R61      HGR61
    4     8     9    10	 9 ;     CG3C50     CG2R61     CG2R61     CG2R61
    4     8     9    34	 9 ;     CG3C50     CG2R61     CG2R61      HGR61
   13     8     9    10	 9 ;     CG2R61     CG2R61     CG2R61     CG2R61
   13     8     9    34	 9 ;     CG2R61     CG2R61     CG2R61      HGR61
    8     9    10    11	 9 ;     CG2R61     CG2R61     CG2R61     CG2R61
    8     9    10    35	 9 ;     CG2R61     CG2R61     CG2R61      HGR61
   34     9    10    11	 9 ;      HGR61     CG2R61     CG2R61     CG2R61
   34     9    10    35	 9 ;      HGR61     CG2R61     CG2R61      HGR61
    9    10    11    12	 9 ;     CG2R61     CG2R61     CG2R61     CG2R61
    9    10    11    36	 9 ;     CG2R61     CG2R61     CG2R61      HGR61
   35    10    11    12	 9 ;      HGR61     CG2R61     CG2R61     CG2R61
   35    10    11    36	 9 ;      HGR61     CG2R61     CG2R61      HGR61
   10    11    12    13	 9 ;     CG2R61     CG2R61     CG2R61     CG2R61
   10    11    12    37	 9 ;     CG2R61     CG2R61     CG2R61      HGR61
   36    11    12    13	 9 ;      HGR61     CG2R61     CG2R61     CG2R61
   36    11    12    37	 9 ;      HGR61     CG2R61     CG2R61      HGR61
   11    12    13     8	 9 ;     CG2R61     CG2R61     CG2R61     CG2R61
   11    12    13    38	 9 ;     CG2R61     CG2R61     CG2R61      HGR61
   37    12    13     8	 9 ;      HGR61     CG2R61     CG2R61     CG2R61
   37    12    13    38	 9 ;      HGR61     CG2R61     CG2R61      HGR61
    4    14    19    18	 9 ;     CG3C50      CG311      CG321      CG321
    4    14    19    48	 9 ;     CG3C50      CG311      CG321       HGA2
    4    14    19    49	 9 ;     CG3C50      CG311      CG321       HGA2
   15    14    19    18	 9 ;      CG321      CG311      CG321      CG321
   15    14    19    48	 9 ;      CG321      CG311      CG321       HGA2
   15    14    19    49	 9 ;      CG321      CG311      CG321       HGA2
   39    14    19    18	 9 ;       HGA1      CG311      CG321      CG321
   39    14    19    48	 9 ;       HGA1      CG311      CG321       HGA2
   39    14    19    49	 9 ;       HGA1      CG311      CG321       HGA2
   19    14    15    16	 9 ;      CG321      CG311      CG321      CG321
   19    14    15    40	 9 ;      CG321      CG311      CG321       HGA2
   19    14    15    41	 9 ;      CG321      CG311      CG321       HGA2
    4    14    15    16	 9 ;     CG3C50      CG311      CG321      CG321
    4    14    15    40	 9 ;     CG3C50      CG311      CG321       HGA2
    4    14    15    41	 9 ;     CG3C50      CG311      CG321       HGA2
   39    14    15    16	 9 ;       HGA1      CG311      CG321      CG321
   39    14    15    40	 9 ;       HGA1      CG311      CG321       HGA2
   39    14    15    41	 9 ;       HGA1      CG311      CG321       HGA2
   14    15    16    17	 9 ;      CG311      CG321      CG321      CG321
   14    15    16    42	 9 ;      CG311      CG321      CG321       HGA2
   14    15    16    43	 9 ;      CG311      CG321      CG321       HGA2
   40    15    16    17	 9 ;       HGA2      CG321      CG321      CG321
   40    15    16    42	 9 ;       HGA2      CG321      CG321       HGA2
   40    15    16    43	 9 ;       HGA2      CG321      CG321       HGA2
   41    15    16    17	 9 ;       HGA2      CG321      CG321      CG321
   41    15    16    42	 9 ;       HGA2      CG321      CG321       HGA2
   41    15    16    43	 9 ;       HGA2      CG321      CG321       HGA2
   15    16    17    18	 9 ;      CG321      CG321      CG321      CG321
   15    16    17    44	 9 ;      CG321      CG321      CG321       HGA2
   15    16    17    45	 9 ;      CG321      CG321      CG321       HGA2
   42    16    17    18	 9 ;       HGA2      CG321      CG321      CG321
   42    16    17    44	 9 ;       HGA2      CG321      CG321       HGA2
   42    16    17    45	 9 ;       HGA2      CG321      CG321       HGA2
   43    16    17    18	 9 ;       HGA2      CG321      CG321      CG321
   43    16    17    44	 9 ;       HGA2      CG321      CG321       HGA2
   43    16    17    45	 9 ;       HGA2      CG321      CG321       HGA2
   16    17    18    19	 9 ;      CG321      CG321      CG321      CG321
   16    17    18    46	 9 ;      CG321      CG321      CG321       HGA2
   16    17    18    47	 9 ;      CG321      CG321      CG321       HGA2
   44    17    18    19	 9 ;       HGA2      CG321      CG321      CG321
   44    17    18    46	 9 ;       HGA2      CG321      CG321       HGA2
   44    17    18    47	 9 ;       HGA2      CG321      CG321       HGA2
   45    17    18    19	 9 ;       HGA2      CG321      CG321      CG321
   45    17    18    46	 9 ;       HGA2      CG321      CG321       HGA2
   45    17    18    47	 9 ;       HGA2      CG321      CG321       HGA2
   17    18    19    14	 9 ;      CG321      CG321      CG321      CG311
   17    18    19    48	 9 ;      CG321      CG321      CG321       HGA2
   17    18    19    49	 9 ;      CG321      CG321      CG321       HGA2
   46    18    19    14	 9 ;       HGA2      CG321      CG321      CG311
   46    18    19    48	 9 ;       HGA2      CG321      CG321       HGA2
   46    18    19    49	 9 ;       HGA2      CG321      CG321       HGA2
   47    18    19    14	 9 ;       HGA2      CG321      CG321      CG311
   47    18    19    48	 9 ;       HGA2      CG321      CG321       HGA2
   47    18    19    49	 9 ;       HGA2      CG321      CG321       HGA2
    1    20    21    27	 9 ;     NG2R53      CG321     CG2R61     CG2R61
    1    20    21    22	 9 ;     NG2R53      CG321     CG2R61     CG2R61
   50    20    21    27	 9 ;       HGA2      CG321     CG2R61     CG2R61
   50    20    21    22	 9 ;       HGA2      CG321     CG2R61     CG2R61
   51    20    21    27	 9 ;       HGA2      CG321     CG2R61     CG2R61
   51    20    21    22	 9 ;       HGA2      CG321     CG2R61     CG2R61
   22    21    27    26	 9 ;     CG2R61     CG2R61     CG2R61     CG2R66
   22    21    27    54	 9 ;     CG2R61     CG2R61     CG2R61      HGR62
   20    21    27    26	 9 ;      CG321     CG2R61     CG2R61     CG2R66
   20    21    27    54	 9 ;      CG321     CG2R61     CG2R61      HGR62
   27    21    22    23	 9 ;     CG2R61     CG2R61     CG2R61     CG2R66
   27    21    22    52	 9 ;     CG2R61     CG2R61     CG2R61      HGR62
   20    21    22    23	 9 ;      CG321     CG2R61     CG2R61     CG2R66
   20    21    22    52	 9 ;      CG321     CG2R61     CG2R61      HGR62
   21    22    23    25	 9 ;     CG2R61     CG2R61     CG2R66     CG2R61
   21    22    23    24	 9 ;     CG2R61     CG2R61     CG2R66       FGR1
   52    22    23    25	 9 ;      HGR62     CG2R61     CG2R66     CG2R61
   52    22    23    24	 9 ;      HGR62     CG2R61     CG2R66       FGR1
   24    23    25    26	 9 ;       FGR1     CG2R66     CG2R61     CG2R66
   24    23    25    53	 9 ;       FGR1     CG2R66     CG2R61      HGR62
   22    23    25    26	 9 ;     CG2R61     CG2R66     CG2R61     CG2R66
   22    23    25    53	 9 ;     CG2R61     CG2R66     CG2R61      HGR62
   23    25    26    28	 9 ;     CG2R66     CG2R61     CG2R66       FGR1
   23    25    26    27	 9 ;     CG2R66     CG2R61     CG2R66     CG2R61
   53    25    26    28	 9 ;      HGR62     CG2R61     CG2R66       FGR1
   53    25    26    27	 9 ;      HGR62     CG2R61     CG2R66     CG2R61
   28    26    27    21	 9 ;       FGR1     CG2R66     CG2R61     CG2R61
   28    26    27    54	 9 ;       FGR1     CG2R66     CG2R61      HGR62
   25    26    27    21	 9 ;     CG2R61     CG2R66     CG2R61     CG2R61
   25    26    27    54	 9 ;     CG2R61     CG2R66     CG2R61      HGR62

[ dihedrals ]
;	ai	  aj	ak	  al funct			  c0			c1			  c2			c3
    2     4     1     3	 2

