Gravel Rubs Often Many Awfully Cauterized Sores
   55
    1LIG     N1    1  -1.218   0.547  -1.627
    1LIG     C1    2  -1.223   0.415  -1.658
    1LIG      O    3  -1.205   0.366  -1.768
    1LIG     C2    4  -1.262   0.343  -1.528
    1LIG     N2    5  -1.233   0.450  -1.425
    1LIG     HN    6  -1.227   0.439  -1.324
    1LIG     C3    7  -1.217   0.559  -1.493
    1LIG     C4    8  -1.413   0.313  -1.527
    1LIG     C5    9  -1.500   0.370  -1.432
    1LIG     C6   10  -1.638   0.347  -1.437
    1LIG     C7   11  -1.691   0.266  -1.536
    1LIG     C8   12  -1.607   0.207  -1.630
    1LIG     C9   13  -1.469   0.230  -1.626
    1LIG    C10   14  -1.180   0.214  -1.495
    1LIG    C11   15  -1.151   0.197  -1.345
    1LIG    C12   16  -1.067   0.072  -1.317
    1LIG    C13   17  -0.936   0.073  -1.395
    1LIG    C14   18  -0.964   0.083  -1.545
    1LIG    C15   19  -1.049   0.205  -1.578
    1LIG    C16   20  -1.219   0.651  -1.728
    1LIG    C17   21  -1.081   0.702  -1.760
    1LIG    C18   22  -1.025   0.808  -1.687
    1LIG    C19   23  -0.899   0.857  -1.719
    1LIG     F1   24  -0.848   0.959  -1.649
    1LIG    C20   25  -0.825   0.802  -1.824
    1LIG    C21   26  -0.879   0.696  -1.894
    1LIG    C22   27  -1.006   0.645  -1.864
    1LIG     F2   28  -0.810   0.641  -1.994
    1LIG     N3   29  -1.195   0.679  -1.433
    1LIG     H1   30  -1.244   0.685  -1.344
    1LIG     H2   31  -1.099   0.708  -1.425
    1LIG    HN2   32  -1.331   0.470  -1.417
    1LIG     HC   33  -1.324   0.577  -1.492
    1LIG    HC1   34  -1.460   0.434  -1.355
    1LIG    HC2   35  -1.702   0.392  -1.363
    1LIG    HC3   36  -1.798   0.250  -1.541
    1LIG    HC4   37  -1.648   0.143  -1.707
    1LIG    HC5   38  -1.405   0.183  -1.699
    1LIG    HC6   39  -1.242   0.130  -1.525
    1LIG    HC7   40  -1.245   0.188  -1.292
    1LIG    HC8   41  -1.097   0.284  -1.309
    1LIG    HC9   42  -1.044   0.068  -1.210
    1LIG   HC10   43  -1.124  -0.017  -1.344
    1LIG   HC11   44  -0.881  -0.018  -1.375
    1LIG   HC12   45  -0.877   0.159  -1.364
    1LIG   HC13   46  -0.869   0.090  -1.598
    1LIG   HC14   47  -1.016  -0.007  -1.577
    1LIG   HC15   48  -1.076   0.200  -1.684
    1LIG   HC16   49  -0.990   0.295  -1.561
    1LIG   HC17   50  -1.263   0.610  -1.819
    1LIG   HC18   51  -1.280   0.734  -1.693
    1LIG   HC19   52  -1.080   0.851  -1.604
    1LIG   HC20   53  -0.728   0.841  -1.849
    1LIG   HC21   54  -1.046   0.562  -1.920
    1LIG    HN1   55  -1.239   0.747  -1.492
   0.00000   0.00000   0.00000
