Glycine aRginine prOline Methionine Alanine Cystine Serine
   58
    1LIG     C1    1  -1.329   0.389  -1.777
    1LIG     N1    2  -1.429   0.301  -1.845
    1LIG     C2    3  -1.462   0.354  -1.966
    1LIG     N2    4  -1.386   0.460  -1.996
    1LIG     C3    5  -1.286   0.475  -1.896
    1LIG     N3    6  -1.188   0.557  -1.898
    1LIG    HN1    7  -1.111   0.551  -1.832
    1LIG     C4    8  -1.194   0.661  -2.001
    1LIG     C5    9  -1.340   0.694  -2.032
    1LIG     C6   10  -1.408   0.570  -2.089
    1LIG     H1   11  -1.467   0.217  -1.807
    1LIG     C7   12  -1.406   0.477  -1.676
    1LIG     C8   13  -1.460   0.421  -1.558
    1LIG     C9   14  -1.530   0.495  -1.462
    1LIG    C10   15  -1.549   0.631  -1.490
    1LIG    C11   16  -1.499   0.689  -1.607
    1LIG    C12   17  -1.427   0.613  -1.699
    1LIG    C13   18  -1.579   0.434  -1.337
    1LIG    C14   19  -1.686   0.343  -1.336
    1LIG    C15   20  -1.736   0.291  -1.217
    1LIG    C16   21  -1.675   0.329  -1.099
    1LIG     N4   22  -1.571   0.414  -1.093
    1LIG    C17   23  -1.526   0.463  -1.210
    1LIG    HN2   24  -1.528   0.439  -1.004
    1LIG     F1   25  -1.423   0.550  -1.201
    1LIG    C18   26  -1.214   0.309  -1.720
    1LIG    C19   27  -1.168   0.197  -1.789
    1LIG    C20   28  -1.083   0.114  -1.720
    1LIG     O1   29  -1.050  -0.013  -1.759
    1LIG    C21   30  -1.037   0.143  -1.593
    1LIG    C22   31  -1.026  -0.065  -1.627
    1LIG     F2   32  -1.144  -0.112  -1.581
    1LIG     F3   33  -0.939  -0.167  -1.634
    1LIG     O2   34  -0.977   0.035  -1.536
    1LIG    C23   35  -1.064   0.263  -1.532
    1LIG    C24   36  -1.154   0.346  -1.597
    1LIG     N5   37  -1.557   0.301  -2.042
    1LIG     H2   38  -1.647   0.272  -2.005
    1LIG     H3   39  -1.540   0.282  -2.141
    1LIG     H4   40  -1.536   0.350  -2.043
    1LIG     H5   41  -1.185   0.489  -1.928
    1LIG     H6   42  -1.144   0.749  -1.966
    1LIG     H7   43  -1.146   0.626  -2.090
    1LIG     H8   44  -1.390   0.724  -1.942
    1LIG     H9   45  -1.345   0.774  -2.102
    1LIG    H10   46  -1.365   0.546  -2.184
    1LIG    H11   47  -1.513   0.588  -2.102
    1LIG    H12   48  -1.447   0.320  -1.541
    1LIG    H13   49  -1.603   0.689  -1.424
    1LIG    H14   50  -1.515   0.790  -1.625
    1LIG    H15   51  -1.389   0.658  -1.784
    1LIG    H16   52  -1.729   0.315  -1.426
    1LIG    H17   53  -1.815   0.226  -1.217
    1LIG    H18   54  -1.643   0.239  -1.052
    1LIG    H19   55  -1.753   0.388  -1.054
    1LIG    H20   56  -1.196   0.177  -1.886
    1LIG    H21   57  -1.019   0.290  -1.443
    1LIG    H22   58  -1.178   0.437  -1.554
   0.00000   0.00000   0.00000
