; Created by cgenff_charmm2gmx.py

[ moleculetype ]
; Name			   nrexcl
LIG				 3

[ atoms ]
;	 nr		  type	resnr residue  atom   cgnr	   charge		mass  typeB    chargeB		massB
; residue	 1 LIG rtp LIG q	qsum
     1     CG3C50      1    LIG     C1      1      0.952     12.011   ;
     2     NG3C51      1    LIG     N1      2     -0.942     14.007   ;
     3     CG3C51      1    LIG     C2      3      0.310     12.011   ;
     4     NG3C51      1    LIG     N2      4     -0.975     14.007   ;
     5     CG3RC1      1    LIG     C3      5      0.331     12.011   ;
     6      NG311      1    LIG     N3      6     -0.833     14.007   ;
     7     HGPAM1      1    LIG    HN1      7      0.404      1.008   ;
     8      CG321      1    LIG     C4      8      0.060     12.011   ;
     9      CG321      1    LIG     C5      9     -0.219     12.011   ;
    10      CG321      1    LIG     C6     10      0.333     12.011   ;
    11       HGP1      1    LIG     H1     11      0.206      1.008   ;
    12     CG2R61      1    LIG     C7     12     -0.001     12.011   ;
    13     CG2R61      1    LIG     C8     13     -0.182     12.011   ;
    14     CG2R61      1    LIG     C9     14     -0.137     12.011   ;
    15     CG2R61      1    LIG    C10     15     -0.117     12.011   ;
    16     CG2R61      1    LIG    C11     16     -0.102     12.011   ;
    17     CG2R61      1    LIG    C12     17     -0.181     12.011   ;
    18     CG2DC1      1    LIG    C13     18      0.053     12.011   ;
    19     CG2DC2      1    LIG    C14     19     -0.246     12.011   ;
    20     CG2DC2      1    LIG    C15     20     -0.181     12.011   ;
    21      CG321      1    LIG    C16     21     -0.037     12.011   ;
    22      NG311      1    LIG     N4     22     -0.466     14.007   ;
    23     CG2D1O      1    LIG    C17     23      0.321     12.011   ;
    24     HGPAM1      1    LIG    HN2     24      0.324      1.008   ;
    25       FGA1      1    LIG     F1     25     -0.107     18.998   ;
    26     CG2R61      1    LIG    C18     26     -0.023     12.011   ;
    27     CG2R61      1    LIG    C19     27     -0.418     12.011   ;
    28     CG2RC0      1    LIG    C20     28      0.193     12.011   ;
    29     OG3C51      1    LIG     O1     29     -0.626     15.999   ;
    30     CG2RC0      1    LIG    C21     30      0.191     12.011   ;
    31     CG3C50      1    LIG    C22     31      1.656     12.011   ;
    32       FGA2      1    LIG     F2     32     -0.279     18.998   ;
    33       FGA2      1    LIG     F3     33     -0.279     18.998   ;
    34     OG3C51      1    LIG     O2     34     -0.626     15.999   ;
    35     CG2R61      1    LIG    C23     35     -0.347     12.011   ;
    36     CG2R61      1    LIG    C24     36     -0.222     12.011   ;
    37      NG321      1    LIG     N5     37     -0.868     14.007   ;
    38     HGPAM2      1    LIG     H2     38      0.349      1.008   ;
    39     HGPAM2      1    LIG     H3     39      0.349      1.008   ;
    40       HGA1      1    LIG     H4     40      0.137      1.008   ;
    41       HGA1      1    LIG     H5     41      0.090      1.008   ;
    42       HGA2      1    LIG     H6     42      0.090      1.008   ;
    43       HGA2      1    LIG     H7     43      0.090      1.008   ;
    44       HGA2      1    LIG     H8     44      0.090      1.008   ;
    45       HGA2      1    LIG     H9     45      0.090      1.008   ;
    46       HGA2      1    LIG    H10     46      0.090      1.008   ;
    47       HGA2      1    LIG    H11     47      0.090      1.008   ;
    48      HGR61      1    LIG    H12     48      0.116      1.008   ;
    49      HGR61      1    LIG    H13     49      0.116      1.008   ;
    50      HGR61      1    LIG    H14     50      0.116      1.008   ;
    51      HGR61      1    LIG    H15     51      0.116      1.008   ;
    52       HGA4      1    LIG    H16     52      0.153      1.008   ;
    53       HGA4      1    LIG    H17     53      0.150      1.008   ;
    54       HGA2      1    LIG    H18     54      0.090      1.008   ;
    55       HGA2      1    LIG    H19     55      0.090      1.008   ;
    56      HGR61      1    LIG    H20     56      0.267      1.008   ;
    57      HGR61      1    LIG    H21     57      0.267      1.008   ;
    58      HGR61      1    LIG    H22     58      0.134      1.008   ;

[ bonds ]
;	ai	  aj funct			  c0			c1			  c2			c3
    1     5	 1 ;      CG3C50     CG3RC1
    1     2	 1 ;      CG3C50     NG3C51
    1    26	 1 ;      CG3C50     CG2R61
    1    12	 1 ;      CG3C50     CG2R61
    2     3	 1 ;      NG3C51     CG3C51
    2    11	 1 ;      NG3C51       HGP1
    3    37	 1 ;      CG3C51      NG321
    3     4	 1 ;      CG3C51     NG3C51
    3    40	 1 ;      CG3C51       HGA1
    4    10	 1 ;      NG3C51      CG321
    4     5	 1 ;      NG3C51     CG3RC1
    5     6	 1 ;      CG3RC1      NG311
    5    41	 1 ;      CG3RC1       HGA1
    6     8	 1 ;       NG311      CG321
    6     7	 1 ;       NG311     HGPAM1
    8     9	 1 ;       CG321      CG321
    8    42	 1 ;       CG321       HGA2
    8    43	 1 ;       CG321       HGA2
    9    10	 1 ;       CG321      CG321
    9    44	 1 ;       CG321       HGA2
    9    45	 1 ;       CG321       HGA2
   10    46	 1 ;       CG321       HGA2
   10    47	 1 ;       CG321       HGA2
   12    17	 1 ;      CG2R61     CG2R61
   12    13	 1 ;      CG2R61     CG2R61
   13    14	 1 ;      CG2R61     CG2R61
   13    48	 1 ;      CG2R61      HGR61
   14    15	 1 ;      CG2R61     CG2R61
   14    18	 1 ;      CG2R61     CG2DC1
   15    16	 1 ;      CG2R61     CG2R61
   15    49	 1 ;      CG2R61      HGR61
   16    17	 1 ;      CG2R61     CG2R61
   16    50	 1 ;      CG2R61      HGR61
   17    51	 1 ;      CG2R61      HGR61
   18    19	 1 ;      CG2DC1     CG2DC2
   18    23	 1 ;      CG2DC1     CG2D1O
   19    20	 1 ;      CG2DC2     CG2DC2
   19    52	 1 ;      CG2DC2       HGA4
   20    21	 1 ;      CG2DC2      CG321
   20    53	 1 ;      CG2DC2       HGA4
   21    22	 1 ;       CG321      NG311
   21    54	 1 ;       CG321       HGA2
   21    55	 1 ;       CG321       HGA2
   22    23	 1 ;       NG311     CG2D1O
   22    24	 1 ;       NG311     HGPAM1
   23    25	 1 ;      CG2D1O       FGA1
   26    27	 1 ;      CG2R61     CG2R61
   26    36	 1 ;      CG2R61     CG2R61
   27    28	 1 ;      CG2R61     CG2RC0
   27    56	 1 ;      CG2R61      HGR61
   28    29	 1 ;      CG2RC0     OG3C51
   28    30	 1 ;      CG2RC0     CG2RC0
   29    31	 1 ;      OG3C51     CG3C50
   30    34	 1 ;      CG2RC0     OG3C51
   30    35	 1 ;      CG2RC0     CG2R61
   31    33	 1 ;      CG3C50       FGA2
   31    32	 1 ;      CG3C50       FGA2
   31    34	 1 ;      CG3C50     OG3C51
   35    36	 1 ;      CG2R61     CG2R61
   35    57	 1 ;      CG2R61      HGR61
   36    58	 1 ;      CG2R61      HGR61
   37    39	 1 ;       NG321     HGPAM2
   37    38	 1 ;       NG321     HGPAM2

[ pairs ]
;	ai	  aj funct			  c0			c1			  c2			c3
    1    37	 1
    1    40	 1
    1    10	 1
    1     8	 1
    1     7	 1
    1    16	 1
    1    51	 1
    1    14	 1
    1    48	 1
    1    28	 1
    1    56	 1
    1    35	 1
    1    58	 1
    2     6	 1
    2    41	 1
    2    27	 1
    2    36	 1
    2    17	 1
    2    13	 1
    2    39	 1
    2    38	 1
    2    10	 1
    3    26	 1
    3    12	 1
    3     9	 1
    3    46	 1
    3    47	 1
    3     6	 1
    3    41	 1
    4    26	 1
    4    12	 1
    4    11	 1
    4    39	 1
    4    38	 1
    4     8	 1
    4     7	 1
    4    44	 1
    4    45	 1
    5    11	 1
    5    27	 1
    5    36	 1
    5    17	 1
    5    13	 1
    5    37	 1
    5    40	 1
    5     9	 1
    5    46	 1
    5    47	 1
    5    42	 1
    5    43	 1
    6    26	 1
    6    12	 1
    6    10	 1
    6    44	 1
    6    45	 1
    7    41	 1
    7     9	 1
    7    42	 1
    7    43	 1
    8    41	 1
    8    46	 1
    8    47	 1
   10    37	 1
   10    40	 1
   10    41	 1
   10    42	 1
   10    43	 1
   11    26	 1
   11    12	 1
   11    37	 1
   11    40	 1
   12    41	 1
   12    27	 1
   12    36	 1
   12    15	 1
   12    18	 1
   12    50	 1
   13    26	 1
   13    16	 1
   13    51	 1
   13    49	 1
   13    19	 1
   13    23	 1
   14    17	 1
   14    50	 1
   14    20	 1
   14    52	 1
   14    25	 1
   14    22	 1
   15    48	 1
   15    19	 1
   15    23	 1
   15    51	 1
   16    18	 1
   17    26	 1
   17    48	 1
   17    49	 1
   18    48	 1
   18    49	 1
   18    21	 1
   18    53	 1
   18    24	 1
   19    25	 1
   19    22	 1
   19    54	 1
   19    55	 1
   20    23	 1
   20    24	 1
   21    52	 1
   21    25	 1
   22    53	 1
   23    52	 1
   23    54	 1
   23    55	 1
   24    54	 1
   24    55	 1
   24    25	 1
   26    41	 1
   26    29	 1
   26    30	 1
   26    57	 1
   27    35	 1
   27    58	 1
   27    31	 1
   27    34	 1
   28    36	 1
   28    33	 1
   28    32	 1
   28    57	 1
   29    56	 1
   29    35	 1
   30    56	 1
   30    33	 1
   30    32	 1
   30    58	 1
   31    35	 1
   34    36	 1
   34    57	 1
   36    56	 1
   38    40	 1
   39    40	 1
   42    44	 1
   42    45	 1
   43    44	 1
   43    45	 1
   44    46	 1
   44    47	 1
   45    46	 1
   45    47	 1
   49    50	 1
   50    51	 1
   52    53	 1
   53    54	 1
   53    55	 1
   57    58	 1

[ angles ]
;	ai	  aj	ak funct			c0			  c1			c2			  c3
    5     1     2	5 ;     CG3RC1     CG3C50     NG3C51
    5     1    26	5 ;     CG3RC1     CG3C50     CG2R61
    5     1    12	5 ;     CG3RC1     CG3C50     CG2R61
    2     1    26	5 ;     NG3C51     CG3C50     CG2R61
    2     1    12	5 ;     NG3C51     CG3C50     CG2R61
   26     1    12	5 ;     CG2R61     CG3C50     CG2R61
    3     2    11	5 ;     CG3C51     NG3C51       HGP1
    3     2     1	5 ;     CG3C51     NG3C51     CG3C50
   11     2     1	5 ;       HGP1     NG3C51     CG3C50
   37     3     4	5 ;      NG321     CG3C51     NG3C51
   37     3     2	5 ;      NG321     CG3C51     NG3C51
   37     3    40	5 ;      NG321     CG3C51       HGA1
    4     3     2	5 ;     NG3C51     CG3C51     NG3C51
    4     3    40	5 ;     NG3C51     CG3C51       HGA1
    2     3    40	5 ;     NG3C51     CG3C51       HGA1
   10     4     3	5 ;      CG321     NG3C51     CG3C51
   10     4     5	5 ;      CG321     NG3C51     CG3RC1
    3     4     5	5 ;     CG3C51     NG3C51     CG3RC1
    4     5     6	5 ;     NG3C51     CG3RC1      NG311
    4     5     1	5 ;     NG3C51     CG3RC1     CG3C50
    4     5    41	5 ;     NG3C51     CG3RC1       HGA1
    6     5     1	5 ;      NG311     CG3RC1     CG3C50
    6     5    41	5 ;      NG311     CG3RC1       HGA1
    1     5    41	5 ;     CG3C50     CG3RC1       HGA1
    8     6     5	5 ;      CG321      NG311     CG3RC1
    8     6     7	5 ;      CG321      NG311     HGPAM1
    5     6     7	5 ;     CG3RC1      NG311     HGPAM1
    9     8     6	5 ;      CG321      CG321      NG311
    9     8    42	5 ;      CG321      CG321       HGA2
    9     8    43	5 ;      CG321      CG321       HGA2
    6     8    42	5 ;      NG311      CG321       HGA2
    6     8    43	5 ;      NG311      CG321       HGA2
   42     8    43	5 ;       HGA2      CG321       HGA2
   10     9     8	5 ;      CG321      CG321      CG321
   10     9    44	5 ;      CG321      CG321       HGA2
   10     9    45	5 ;      CG321      CG321       HGA2
    8     9    44	5 ;      CG321      CG321       HGA2
    8     9    45	5 ;      CG321      CG321       HGA2
   44     9    45	5 ;       HGA2      CG321       HGA2
    9    10     4	5 ;      CG321      CG321     NG3C51
    9    10    46	5 ;      CG321      CG321       HGA2
    9    10    47	5 ;      CG321      CG321       HGA2
    4    10    46	5 ;     NG3C51      CG321       HGA2
    4    10    47	5 ;     NG3C51      CG321       HGA2
   46    10    47	5 ;       HGA2      CG321       HGA2
    1    12    17	5 ;     CG3C50     CG2R61     CG2R61
    1    12    13	5 ;     CG3C50     CG2R61     CG2R61
   17    12    13	5 ;     CG2R61     CG2R61     CG2R61
   12    13    14	5 ;     CG2R61     CG2R61     CG2R61
   12    13    48	5 ;     CG2R61     CG2R61      HGR61
   14    13    48	5 ;     CG2R61     CG2R61      HGR61
   13    14    15	5 ;     CG2R61     CG2R61     CG2R61
   13    14    18	5 ;     CG2R61     CG2R61     CG2DC1
   15    14    18	5 ;     CG2R61     CG2R61     CG2DC1
   16    15    14	5 ;     CG2R61     CG2R61     CG2R61
   16    15    49	5 ;     CG2R61     CG2R61      HGR61
   14    15    49	5 ;     CG2R61     CG2R61      HGR61
   17    16    15	5 ;     CG2R61     CG2R61     CG2R61
   17    16    50	5 ;     CG2R61     CG2R61      HGR61
   15    16    50	5 ;     CG2R61     CG2R61      HGR61
   12    17    16	5 ;     CG2R61     CG2R61     CG2R61
   12    17    51	5 ;     CG2R61     CG2R61      HGR61
   16    17    51	5 ;     CG2R61     CG2R61      HGR61
   14    18    19	5 ;     CG2R61     CG2DC1     CG2DC2
   14    18    23	5 ;     CG2R61     CG2DC1     CG2D1O
   19    18    23	5 ;     CG2DC2     CG2DC1     CG2D1O
   18    19    20	5 ;     CG2DC1     CG2DC2     CG2DC2
   18    19    52	5 ;     CG2DC1     CG2DC2       HGA4
   20    19    52	5 ;     CG2DC2     CG2DC2       HGA4
   19    20    21	5 ;     CG2DC2     CG2DC2      CG321
   19    20    53	5 ;     CG2DC2     CG2DC2       HGA4
   21    20    53	5 ;      CG321     CG2DC2       HGA4
   20    21    22	5 ;     CG2DC2      CG321      NG311
   20    21    54	5 ;     CG2DC2      CG321       HGA2
   20    21    55	5 ;     CG2DC2      CG321       HGA2
   22    21    54	5 ;      NG311      CG321       HGA2
   22    21    55	5 ;      NG311      CG321       HGA2
   54    21    55	5 ;       HGA2      CG321       HGA2
   23    22    21	5 ;     CG2D1O      NG311      CG321
   23    22    24	5 ;     CG2D1O      NG311     HGPAM1
   21    22    24	5 ;      CG321      NG311     HGPAM1
   18    23    25	5 ;     CG2DC1     CG2D1O       FGA1
   18    23    22	5 ;     CG2DC1     CG2D1O      NG311
   25    23    22	5 ;       FGA1     CG2D1O      NG311
   27    26     1	5 ;     CG2R61     CG2R61     CG3C50
   27    26    36	5 ;     CG2R61     CG2R61     CG2R61
    1    26    36	5 ;     CG3C50     CG2R61     CG2R61
   26    27    28	5 ;     CG2R61     CG2R61     CG2RC0
   26    27    56	5 ;     CG2R61     CG2R61      HGR61
   28    27    56	5 ;     CG2RC0     CG2R61      HGR61
   27    28    29	5 ;     CG2R61     CG2RC0     OG3C51
   27    28    30	5 ;     CG2R61     CG2RC0     CG2RC0
   29    28    30	5 ;     OG3C51     CG2RC0     CG2RC0
   28    29    31	5 ;     CG2RC0     OG3C51     CG3C50
   28    30    34	5 ;     CG2RC0     CG2RC0     OG3C51
   28    30    35	5 ;     CG2RC0     CG2RC0     CG2R61
   34    30    35	5 ;     OG3C51     CG2RC0     CG2R61
   29    31    33	5 ;     OG3C51     CG3C50       FGA2
   29    31    32	5 ;     OG3C51     CG3C50       FGA2
   29    31    34	5 ;     OG3C51     CG3C50     OG3C51
   33    31    32	5 ;       FGA2     CG3C50       FGA2
   33    31    34	5 ;       FGA2     CG3C50     OG3C51
   32    31    34	5 ;       FGA2     CG3C50     OG3C51
   31    34    30	5 ;     CG3C50     OG3C51     CG2RC0
   36    35    30	5 ;     CG2R61     CG2R61     CG2RC0
   36    35    57	5 ;     CG2R61     CG2R61      HGR61
   30    35    57	5 ;     CG2RC0     CG2R61      HGR61
   26    36    35	5 ;     CG2R61     CG2R61     CG2R61
   26    36    58	5 ;     CG2R61     CG2R61      HGR61
   35    36    58	5 ;     CG2R61     CG2R61      HGR61
   39    37    38	5 ;     HGPAM2      NG321     HGPAM2
   39    37     3	5 ;     HGPAM2      NG321     CG3C51
   38    37     3	5 ;     HGPAM2      NG321     CG3C51

[ dihedrals ]
;	ai	  aj	ak	  al funct			  c0			c1			  c2			c3			  c4			c5
    2     1     5     4	 9 ;     NG3C51     CG3C50     CG3RC1     NG3C51
    2     1     5     6	 9 ;     NG3C51     CG3C50     CG3RC1      NG311
    2     1     5    41	 9 ;     NG3C51     CG3C50     CG3RC1       HGA1
   26     1     5     4	 9 ;     CG2R61     CG3C50     CG3RC1     NG3C51
   26     1     5     6	 9 ;     CG2R61     CG3C50     CG3RC1      NG311
   26     1     5    41	 9 ;     CG2R61     CG3C50     CG3RC1       HGA1
   12     1     5     4	 9 ;     CG2R61     CG3C50     CG3RC1     NG3C51
   12     1     5     6	 9 ;     CG2R61     CG3C50     CG3RC1      NG311
   12     1     5    41	 9 ;     CG2R61     CG3C50     CG3RC1       HGA1
    5     1     2     3	 9 ;     CG3RC1     CG3C50     NG3C51     CG3C51
    5     1     2    11	 9 ;     CG3RC1     CG3C50     NG3C51       HGP1
   26     1     2     3	 9 ;     CG2R61     CG3C50     NG3C51     CG3C51
   26     1     2    11	 9 ;     CG2R61     CG3C50     NG3C51       HGP1
   12     1     2     3	 9 ;     CG2R61     CG3C50     NG3C51     CG3C51
   12     1     2    11	 9 ;     CG2R61     CG3C50     NG3C51       HGP1
    5     1    26    27	 9 ;     CG3RC1     CG3C50     CG2R61     CG2R61
    5     1    26    36	 9 ;     CG3RC1     CG3C50     CG2R61     CG2R61
    2     1    26    27	 9 ;     NG3C51     CG3C50     CG2R61     CG2R61
    2     1    26    36	 9 ;     NG3C51     CG3C50     CG2R61     CG2R61
   12     1    26    27	 9 ;     CG2R61     CG3C50     CG2R61     CG2R61
   12     1    26    36	 9 ;     CG2R61     CG3C50     CG2R61     CG2R61
    5     1    12    17	 9 ;     CG3RC1     CG3C50     CG2R61     CG2R61
    5     1    12    13	 9 ;     CG3RC1     CG3C50     CG2R61     CG2R61
    2     1    12    17	 9 ;     NG3C51     CG3C50     CG2R61     CG2R61
    2     1    12    13	 9 ;     NG3C51     CG3C50     CG2R61     CG2R61
   26     1    12    17	 9 ;     CG2R61     CG3C50     CG2R61     CG2R61
   26     1    12    13	 9 ;     CG2R61     CG3C50     CG2R61     CG2R61
   11     2     3    37	 9 ;       HGP1     NG3C51     CG3C51      NG321
   11     2     3     4	 9 ;       HGP1     NG3C51     CG3C51     NG3C51
   11     2     3    40	 9 ;       HGP1     NG3C51     CG3C51       HGA1
    1     2     3    37	 9 ;     CG3C50     NG3C51     CG3C51      NG321
    1     2     3     4	 9 ;     CG3C50     NG3C51     CG3C51     NG3C51
    1     2     3    40	 9 ;     CG3C50     NG3C51     CG3C51       HGA1
    4     3    37    39	 9 ;     NG3C51     CG3C51      NG321     HGPAM2
    4     3    37    38	 9 ;     NG3C51     CG3C51      NG321     HGPAM2
    2     3    37    39	 9 ;     NG3C51     CG3C51      NG321     HGPAM2
    2     3    37    38	 9 ;     NG3C51     CG3C51      NG321     HGPAM2
   40     3    37    39	 9 ;       HGA1     CG3C51      NG321     HGPAM2
   40     3    37    38	 9 ;       HGA1     CG3C51      NG321     HGPAM2
   37     3     4    10	 9 ;      NG321     CG3C51     NG3C51      CG321
   37     3     4     5	 9 ;      NG321     CG3C51     NG3C51     CG3RC1
    2     3     4    10	 9 ;     NG3C51     CG3C51     NG3C51      CG321
    2     3     4     5	 9 ;     NG3C51     CG3C51     NG3C51     CG3RC1
   40     3     4    10	 9 ;       HGA1     CG3C51     NG3C51      CG321
   40     3     4     5	 9 ;       HGA1     CG3C51     NG3C51     CG3RC1
    3     4    10     9	 9 ;     CG3C51     NG3C51      CG321      CG321
    3     4    10    46	 9 ;     CG3C51     NG3C51      CG321       HGA2
    3     4    10    47	 9 ;     CG3C51     NG3C51      CG321       HGA2
    5     4    10     9	 9 ;     CG3RC1     NG3C51      CG321      CG321
    5     4    10    46	 9 ;     CG3RC1     NG3C51      CG321       HGA2
    5     4    10    47	 9 ;     CG3RC1     NG3C51      CG321       HGA2
   10     4     5     6	 9 ;      CG321     NG3C51     CG3RC1      NG311
   10     4     5     1	 9 ;      CG321     NG3C51     CG3RC1     CG3C50
   10     4     5    41	 9 ;      CG321     NG3C51     CG3RC1       HGA1
    3     4     5     6	 9 ;     CG3C51     NG3C51     CG3RC1      NG311
    3     4     5     1	 9 ;     CG3C51     NG3C51     CG3RC1     CG3C50
    3     4     5    41	 9 ;     CG3C51     NG3C51     CG3RC1       HGA1
    4     5     6     8	 9 ;     NG3C51     CG3RC1      NG311      CG321
    4     5     6     7	 9 ;     NG3C51     CG3RC1      NG311     HGPAM1
    1     5     6     8	 9 ;     CG3C50     CG3RC1      NG311      CG321
    1     5     6     7	 9 ;     CG3C50     CG3RC1      NG311     HGPAM1
   41     5     6     8	 9 ;       HGA1     CG3RC1      NG311      CG321
   41     5     6     7	 9 ;       HGA1     CG3RC1      NG311     HGPAM1
    5     6     8     9	 9 ;     CG3RC1      NG311      CG321      CG321
    5     6     8    42	 9 ;     CG3RC1      NG311      CG321       HGA2
    5     6     8    43	 9 ;     CG3RC1      NG311      CG321       HGA2
    7     6     8     9	 9 ;     HGPAM1      NG311      CG321      CG321
    7     6     8    42	 9 ;     HGPAM1      NG311      CG321       HGA2
    7     6     8    43	 9 ;     HGPAM1      NG311      CG321       HGA2
    6     8     9    10	 9 ;      NG311      CG321      CG321      CG321
    6     8     9    44	 9 ;      NG311      CG321      CG321       HGA2
    6     8     9    45	 9 ;      NG311      CG321      CG321       HGA2
   42     8     9    10	 9 ;       HGA2      CG321      CG321      CG321
   42     8     9    44	 9 ;       HGA2      CG321      CG321       HGA2
   42     8     9    45	 9 ;       HGA2      CG321      CG321       HGA2
   43     8     9    10	 9 ;       HGA2      CG321      CG321      CG321
   43     8     9    44	 9 ;       HGA2      CG321      CG321       HGA2
   43     8     9    45	 9 ;       HGA2      CG321      CG321       HGA2
    8     9    10     4	 9 ;      CG321      CG321      CG321     NG3C51
    8     9    10    46	 9 ;      CG321      CG321      CG321       HGA2
    8     9    10    47	 9 ;      CG321      CG321      CG321       HGA2
   44     9    10     4	 9 ;       HGA2      CG321      CG321     NG3C51
   44     9    10    46	 9 ;       HGA2      CG321      CG321       HGA2
   44     9    10    47	 9 ;       HGA2      CG321      CG321       HGA2
   45     9    10     4	 9 ;       HGA2      CG321      CG321     NG3C51
   45     9    10    46	 9 ;       HGA2      CG321      CG321       HGA2
   45     9    10    47	 9 ;       HGA2      CG321      CG321       HGA2
    1    12    17    16	 9 ;     CG3C50     CG2R61     CG2R61     CG2R61
    1    12    17    51	 9 ;     CG3C50     CG2R61     CG2R61      HGR61
   13    12    17    16	 9 ;     CG2R61     CG2R61     CG2R61     CG2R61
   13    12    17    51	 9 ;     CG2R61     CG2R61     CG2R61      HGR61
    1    12    13    14	 9 ;     CG3C50     CG2R61     CG2R61     CG2R61
    1    12    13    48	 9 ;     CG3C50     CG2R61     CG2R61      HGR61
   17    12    13    14	 9 ;     CG2R61     CG2R61     CG2R61     CG2R61
   17    12    13    48	 9 ;     CG2R61     CG2R61     CG2R61      HGR61
   12    13    14    15	 9 ;     CG2R61     CG2R61     CG2R61     CG2R61
   12    13    14    18	 9 ;     CG2R61     CG2R61     CG2R61     CG2DC1
   48    13    14    15	 9 ;      HGR61     CG2R61     CG2R61     CG2R61
   48    13    14    18	 9 ;      HGR61     CG2R61     CG2R61     CG2DC1
   13    14    15    16	 9 ;     CG2R61     CG2R61     CG2R61     CG2R61
   13    14    15    49	 9 ;     CG2R61     CG2R61     CG2R61      HGR61
   18    14    15    16	 9 ;     CG2DC1     CG2R61     CG2R61     CG2R61
   18    14    15    49	 9 ;     CG2DC1     CG2R61     CG2R61      HGR61
   13    14    18    19	 9 ;     CG2R61     CG2R61     CG2DC1     CG2DC2
   13    14    18    23	 9 ;     CG2R61     CG2R61     CG2DC1     CG2D1O
   15    14    18    19	 9 ;     CG2R61     CG2R61     CG2DC1     CG2DC2
   15    14    18    23	 9 ;     CG2R61     CG2R61     CG2DC1     CG2D1O
   14    15    16    17	 9 ;     CG2R61     CG2R61     CG2R61     CG2R61
   14    15    16    50	 9 ;     CG2R61     CG2R61     CG2R61      HGR61
   49    15    16    17	 9 ;      HGR61     CG2R61     CG2R61     CG2R61
   49    15    16    50	 9 ;      HGR61     CG2R61     CG2R61      HGR61
   15    16    17    12	 9 ;     CG2R61     CG2R61     CG2R61     CG2R61
   15    16    17    51	 9 ;     CG2R61     CG2R61     CG2R61      HGR61
   50    16    17    12	 9 ;      HGR61     CG2R61     CG2R61     CG2R61
   50    16    17    51	 9 ;      HGR61     CG2R61     CG2R61      HGR61
   14    18    19    20	 9 ;     CG2R61     CG2DC1     CG2DC2     CG2DC2
   14    18    19    52	 9 ;     CG2R61     CG2DC1     CG2DC2       HGA4
   23    18    19    20	 9 ;     CG2D1O     CG2DC1     CG2DC2     CG2DC2
   23    18    19    52	 9 ;     CG2D1O     CG2DC1     CG2DC2       HGA4
   14    18    23    25	 9 ;     CG2R61     CG2DC1     CG2D1O       FGA1
   14    18    23    22	 9 ;     CG2R61     CG2DC1     CG2D1O      NG311
   19    18    23    25	 9 ;     CG2DC2     CG2DC1     CG2D1O       FGA1
   19    18    23    22	 9 ;     CG2DC2     CG2DC1     CG2D1O      NG311
   18    19    20    21	 9 ;     CG2DC1     CG2DC2     CG2DC2      CG321
   18    19    20    53	 9 ;     CG2DC1     CG2DC2     CG2DC2       HGA4
   52    19    20    21	 9 ;       HGA4     CG2DC2     CG2DC2      CG321
   52    19    20    53	 9 ;       HGA4     CG2DC2     CG2DC2       HGA4
   19    20    21    22	 9 ;     CG2DC2     CG2DC2      CG321      NG311
   19    20    21    54	 9 ;     CG2DC2     CG2DC2      CG321       HGA2
   19    20    21    55	 9 ;     CG2DC2     CG2DC2      CG321       HGA2
   53    20    21    22	 9 ;       HGA4     CG2DC2      CG321      NG311
   53    20    21    54	 9 ;       HGA4     CG2DC2      CG321       HGA2
   53    20    21    55	 9 ;       HGA4     CG2DC2      CG321       HGA2
   20    21    22    23	 9 ;     CG2DC2      CG321      NG311     CG2D1O
   20    21    22    24	 9 ;     CG2DC2      CG321      NG311     HGPAM1
   54    21    22    23	 9 ;       HGA2      CG321      NG311     CG2D1O
   54    21    22    24	 9 ;       HGA2      CG321      NG311     HGPAM1
   55    21    22    23	 9 ;       HGA2      CG321      NG311     CG2D1O
   55    21    22    24	 9 ;       HGA2      CG321      NG311     HGPAM1
   21    22    23    18	 9 ;      CG321      NG311     CG2D1O     CG2DC1
   21    22    23    25	 9 ;      CG321      NG311     CG2D1O       FGA1
   24    22    23    18	 9 ;     HGPAM1      NG311     CG2D1O     CG2DC1
   24    22    23    25	 9 ;     HGPAM1      NG311     CG2D1O       FGA1
    1    26    27    28	 9 ;     CG3C50     CG2R61     CG2R61     CG2RC0
    1    26    27    56	 9 ;     CG3C50     CG2R61     CG2R61      HGR61
   36    26    27    28	 9 ;     CG2R61     CG2R61     CG2R61     CG2RC0
   36    26    27    56	 9 ;     CG2R61     CG2R61     CG2R61      HGR61
   27    26    36    35	 9 ;     CG2R61     CG2R61     CG2R61     CG2R61
   27    26    36    58	 9 ;     CG2R61     CG2R61     CG2R61      HGR61
    1    26    36    35	 9 ;     CG3C50     CG2R61     CG2R61     CG2R61
    1    26    36    58	 9 ;     CG3C50     CG2R61     CG2R61      HGR61
   26    27    28    29	 9 ;     CG2R61     CG2R61     CG2RC0     OG3C51
   26    27    28    30	 9 ;     CG2R61     CG2R61     CG2RC0     CG2RC0
   56    27    28    29	 9 ;      HGR61     CG2R61     CG2RC0     OG3C51
   56    27    28    30	 9 ;      HGR61     CG2R61     CG2RC0     CG2RC0
   27    28    29    31	 9 ;     CG2R61     CG2RC0     OG3C51     CG3C50
   30    28    29    31	 9 ;     CG2RC0     CG2RC0     OG3C51     CG3C50
   27    28    30    34	 9 ;     CG2R61     CG2RC0     CG2RC0     OG3C51
   27    28    30    35	 9 ;     CG2R61     CG2RC0     CG2RC0     CG2R61
   29    28    30    34	 9 ;     OG3C51     CG2RC0     CG2RC0     OG3C51
   29    28    30    35	 9 ;     OG3C51     CG2RC0     CG2RC0     CG2R61
   28    29    31    33	 9 ;     CG2RC0     OG3C51     CG3C50       FGA2
   28    29    31    32	 9 ;     CG2RC0     OG3C51     CG3C50       FGA2
   28    29    31    34	 9 ;     CG2RC0     OG3C51     CG3C50     OG3C51
   28    30    34    31	 9 ;     CG2RC0     CG2RC0     OG3C51     CG3C50
   35    30    34    31	 9 ;     CG2R61     CG2RC0     OG3C51     CG3C50
   28    30    35    36	 9 ;     CG2RC0     CG2RC0     CG2R61     CG2R61
   28    30    35    57	 9 ;     CG2RC0     CG2RC0     CG2R61      HGR61
   34    30    35    36	 9 ;     OG3C51     CG2RC0     CG2R61     CG2R61
   34    30    35    57	 9 ;     OG3C51     CG2RC0     CG2R61      HGR61
   29    31    34    30	 9 ;     OG3C51     CG3C50     OG3C51     CG2RC0
   33    31    34    30	 9 ;       FGA2     CG3C50     OG3C51     CG2RC0
   32    31    34    30	 9 ;       FGA2     CG3C50     OG3C51     CG2RC0
   30    35    36    26	 9 ;     CG2RC0     CG2R61     CG2R61     CG2R61
   30    35    36    58	 9 ;     CG2RC0     CG2R61     CG2R61      HGR61
   57    35    36    26	 9 ;      HGR61     CG2R61     CG2R61     CG2R61
   57    35    36    58	 9 ;      HGR61     CG2R61     CG2R61      HGR61

[ dihedrals ]
;	ai	  aj	ak	  al funct			  c0			c1			  c2			c3
   23    18    22    25	 2

