; Created by cgenff_charmm2gmx.py

[ moleculetype ]
; Name			   nrexcl
LIG				 3

[ atoms ]
;	 nr		  type	resnr residue  atom   cgnr	   charge		mass  typeB    chargeB		massB
; residue	 1 LIG rtp LIG q	qsum
     1     CG2R61      1    LIG     C1      1      0.006     12.011   ;
     2     CG2R61      1    LIG     C2      2     -0.111     12.011   ;
     3     CG2R61      1    LIG     C3      3      0.227     12.011   ;
     4     CG2R61      1    LIG     C4      4     -0.028     12.011   ;
     5     CG2R66      1    LIG     C5      5      0.028     12.011   ;
     6       FGR1      1    LIG     F1      6     -0.230     18.998   ;
     7     CG2R61      1    LIG     C6      7     -0.121     12.011   ;
     8      CG321      1    LIG     C7      8     -0.123     12.011   ;
     9      CG311      1    LIG     C8      9     -0.083     12.011   ;
    10      CG321      1    LIG     C9     10     -0.117     12.011   ;
    11      SG3O3      1    LIG      S     11      0.407     32.060   ;
    12      OG2P1      1    LIG     O1     12     -0.514     15.999   ;
    13      CG321      1    LIG    C10     13      0.071     12.011   ;
    14      CG314      1    LIG    C11     14      0.007     12.011   ;
    15      CG311      1    LIG    C12     15      0.091     12.011   ;
    16      NG3P3      1    LIG     N1     16     -0.293     14.007   ;
    17       HGP2      1    LIG     H1     17      0.306      1.008   ;
    18       HGP2      1    LIG     H2     18      0.306      1.008   ;
    19       HGP2      1    LIG     H3     19      0.306      1.008   ;
    20      OG311      1    LIG     O2     20     -0.595     15.999   ;
    21       HGP1      1    LIG     H4     21      0.422      1.008   ;
    22      OG301      1    LIG     O3     22     -0.317     15.999   ;
    23      CG311      1    LIG    C13     23      0.350     12.011   ;
    24      CG321      1    LIG    C14     24     -0.044     12.011   ;
    25      OG301      1    LIG     O4     25     -0.326     15.999   ;
    26      CG331      1    LIG    C15     26     -0.100     12.011   ;
    27      CG302      1    LIG    C16     27      0.178     12.011   ;
    28       FGA3      1    LIG     F2     28     -0.115     18.998   ;
    29       FGA3      1    LIG     F3     29     -0.115     18.998   ;
    30       FGA3      1    LIG     F4     30     -0.115     18.998   ;
    31      NG2S3      1    LIG     N2     31     -0.731     14.007   ;
    32       HGP4      1    LIG     H5     32      0.357      1.008   ;
    33       HGP4      1    LIG     H6     33      0.357      1.008   ;
    34      HGR61      1    LIG     H7     34      0.116      1.008   ;
    35      HGR62      1    LIG     H8     35      0.174      1.008   ;
    36       HGA2      1    LIG     H9     36      0.090      1.008   ;
    37       HGA2      1    LIG    H10     37      0.090      1.008   ;
    38       HGA1      1    LIG    H11     38      0.090      1.008   ;
    39       HGA2      1    LIG    H12     39      0.090      1.008   ;
    40       HGA2      1    LIG    H13     40      0.090      1.008   ;
    41       HGA2      1    LIG    H14     41      0.090      1.008   ;
    42       HGA2      1    LIG    H15     42      0.090      1.008   ;
    43       HGA1      1    LIG    H16     43      0.109      1.008   ;
    44       HGA1      1    LIG    H17     44      0.090      1.008   ;
    45       HGA1      1    LIG    H18     45      0.090      1.008   ;
    46       HGA2      1    LIG    H19     46      0.090      1.008   ;
    47       HGA2      1    LIG    H20     47      0.090      1.008   ;
    48       HGA3      1    LIG    H21     48      0.090      1.008   ;
    49       HGA3      1    LIG    H22     49      0.090      1.008   ;
    50       HGA3      1    LIG    H23     50      0.090      1.008   ;

[ bonds ]
;	ai	  aj funct			  c0			c1			  c2			c3
    1     8	 1 ;      CG2R61      CG321
    1     2	 1 ;      CG2R61     CG2R61
    1     7	 1 ;      CG2R61     CG2R61
    2     3	 1 ;      CG2R61     CG2R61
    2    34	 1 ;      CG2R61      HGR61
    3    22	 1 ;      CG2R61      OG301
    3     4	 1 ;      CG2R61     CG2R61
    4     5	 1 ;      CG2R61     CG2R66
    4    31	 1 ;      CG2R61      NG2S3
    5     7	 1 ;      CG2R66     CG2R61
    5     6	 1 ;      CG2R66       FGR1
    7    35	 1 ;      CG2R61      HGR62
    8     9	 1 ;       CG321      CG311
    8    36	 1 ;       CG321       HGA2
    8    37	 1 ;       CG321       HGA2
    9    10	 1 ;       CG311      CG321
    9    15	 1 ;       CG311      CG311
    9    38	 1 ;       CG311       HGA1
   10    11	 1 ;       CG321      SG3O3
   10    39	 1 ;       CG321       HGA2
   10    40	 1 ;       CG321       HGA2
   11    13	 1 ;       SG3O3      CG321
   11    12	 1 ;       SG3O3      OG2P1
   13    14	 1 ;       CG321      CG314
   13    41	 1 ;       CG321       HGA2
   13    42	 1 ;       CG321       HGA2
   14    15	 1 ;       CG314      CG311
   14    16	 1 ;       CG314      NG3P3
   14    43	 1 ;       CG314       HGA1
   15    20	 1 ;       CG311      OG311
   15    44	 1 ;       CG311       HGA1
   16    17	 1 ;       NG3P3       HGP2
   16    19	 1 ;       NG3P3       HGP2
   16    18	 1 ;       NG3P3       HGP2
   20    21	 1 ;       OG311       HGP1
   22    23	 1 ;       OG301      CG311
   23    27	 1 ;       CG311      CG302
   23    24	 1 ;       CG311      CG321
   23    45	 1 ;       CG311       HGA1
   24    25	 1 ;       CG321      OG301
   24    46	 1 ;       CG321       HGA2
   24    47	 1 ;       CG321       HGA2
   25    26	 1 ;       OG301      CG331
   26    48	 1 ;       CG331       HGA3
   26    49	 1 ;       CG331       HGA3
   26    50	 1 ;       CG331       HGA3
   27    28	 1 ;       CG302       FGA3
   27    29	 1 ;       CG302       FGA3
   27    30	 1 ;       CG302       FGA3
   31    33	 1 ;       NG2S3       HGP4
   31    32	 1 ;       NG2S3       HGP4

[ pairs ]
;	ai	  aj funct			  c0			c1			  c2			c3
    1    22	 1
    1     4	 1
    1     6	 1
    1    10	 1
    1    15	 1
    1    38	 1
    2     9	 1
    2    36	 1
    2    37	 1
    2     5	 1
    2    35	 1
    2    23	 1
    2    31	 1
    3     8	 1
    3     7	 1
    3     6	 1
    3    33	 1
    3    32	 1
    3    27	 1
    3    24	 1
    3    45	 1
    4    34	 1
    4    23	 1
    4    35	 1
    5     8	 1
    5    22	 1
    5    33	 1
    5    32	 1
    6    31	 1
    6    35	 1
    7     9	 1
    7    36	 1
    7    37	 1
    7    34	 1
    7    31	 1
    8    34	 1
    8    35	 1
    8    11	 1
    8    39	 1
    8    40	 1
    8    20	 1
    8    14	 1
    8    44	 1
    9    13	 1
    9    12	 1
    9    16	 1
    9    43	 1
    9    21	 1
   10    36	 1
   10    37	 1
   10    20	 1
   10    14	 1
   10    44	 1
   10    41	 1
   10    42	 1
   11    15	 1
   11    38	 1
   11    16	 1
   11    43	 1
   12    39	 1
   12    40	 1
   12    14	 1
   12    41	 1
   12    42	 1
   13    39	 1
   13    40	 1
   13    20	 1
   13    44	 1
   13    17	 1
   13    19	 1
   13    18	 1
   14    38	 1
   14    21	 1
   15    36	 1
   15    37	 1
   15    39	 1
   15    40	 1
   15    41	 1
   15    42	 1
   15    17	 1
   15    19	 1
   15    18	 1
   16    41	 1
   16    42	 1
   16    20	 1
   16    44	 1
   17    43	 1
   18    43	 1
   19    43	 1
   20    38	 1
   20    43	 1
   21    44	 1
   22    34	 1
   22    31	 1
   22    28	 1
   22    29	 1
   22    30	 1
   22    25	 1
   22    46	 1
   22    47	 1
   23    26	 1
   24    28	 1
   24    29	 1
   24    30	 1
   24    48	 1
   24    49	 1
   24    50	 1
   25    27	 1
   25    45	 1
   26    46	 1
   26    47	 1
   27    46	 1
   27    47	 1
   28    45	 1
   29    45	 1
   30    45	 1
   36    38	 1
   37    38	 1
   38    39	 1
   38    40	 1
   38    44	 1
   41    43	 1
   42    43	 1
   43    44	 1
   45    46	 1
   45    47	 1

[ angles ]
;	ai	  aj	ak funct			c0			  c1			c2			  c3
    8     1     2	5 ;      CG321     CG2R61     CG2R61
    8     1     7	5 ;      CG321     CG2R61     CG2R61
    2     1     7	5 ;     CG2R61     CG2R61     CG2R61
    1     2     3	5 ;     CG2R61     CG2R61     CG2R61
    1     2    34	5 ;     CG2R61     CG2R61      HGR61
    3     2    34	5 ;     CG2R61     CG2R61      HGR61
    2     3    22	5 ;     CG2R61     CG2R61      OG301
    2     3     4	5 ;     CG2R61     CG2R61     CG2R61
   22     3     4	5 ;      OG301     CG2R61     CG2R61
    3     4     5	5 ;     CG2R61     CG2R61     CG2R66
    3     4    31	5 ;     CG2R61     CG2R61      NG2S3
    5     4    31	5 ;     CG2R66     CG2R61      NG2S3
    7     5     4	5 ;     CG2R61     CG2R66     CG2R61
    7     5     6	5 ;     CG2R61     CG2R66       FGR1
    4     5     6	5 ;     CG2R61     CG2R66       FGR1
    1     7     5	5 ;     CG2R61     CG2R61     CG2R66
    1     7    35	5 ;     CG2R61     CG2R61      HGR62
    5     7    35	5 ;     CG2R66     CG2R61      HGR62
    9     8     1	5 ;      CG311      CG321     CG2R61
    9     8    36	5 ;      CG311      CG321       HGA2
    9     8    37	5 ;      CG311      CG321       HGA2
    1     8    36	5 ;     CG2R61      CG321       HGA2
    1     8    37	5 ;     CG2R61      CG321       HGA2
   36     8    37	5 ;       HGA2      CG321       HGA2
   10     9    15	5 ;      CG321      CG311      CG311
   10     9     8	5 ;      CG321      CG311      CG321
   10     9    38	5 ;      CG321      CG311       HGA1
   15     9     8	5 ;      CG311      CG311      CG321
   15     9    38	5 ;      CG311      CG311       HGA1
    8     9    38	5 ;      CG321      CG311       HGA1
   11    10     9	5 ;      SG3O3      CG321      CG311
   11    10    39	5 ;      SG3O3      CG321       HGA2
   11    10    40	5 ;      SG3O3      CG321       HGA2
    9    10    39	5 ;      CG311      CG321       HGA2
    9    10    40	5 ;      CG311      CG321       HGA2
   39    10    40	5 ;       HGA2      CG321       HGA2
   10    11    13	5 ;      CG321      SG3O3      CG321
   10    11    12	5 ;      CG321      SG3O3      OG2P1
   13    11    12	5 ;      CG321      SG3O3      OG2P1
   11    13    14	5 ;      SG3O3      CG321      CG314
   11    13    41	5 ;      SG3O3      CG321       HGA2
   11    13    42	5 ;      SG3O3      CG321       HGA2
   14    13    41	5 ;      CG314      CG321       HGA2
   14    13    42	5 ;      CG314      CG321       HGA2
   41    13    42	5 ;       HGA2      CG321       HGA2
   13    14    15	5 ;      CG321      CG314      CG311
   13    14    16	5 ;      CG321      CG314      NG3P3
   13    14    43	5 ;      CG321      CG314       HGA1
   15    14    16	5 ;      CG311      CG314      NG3P3
   15    14    43	5 ;      CG311      CG314       HGA1
   16    14    43	5 ;      NG3P3      CG314       HGA1
   20    15     9	5 ;      OG311      CG311      CG311
   20    15    14	5 ;      OG311      CG311      CG314
   20    15    44	5 ;      OG311      CG311       HGA1
    9    15    14	5 ;      CG311      CG311      CG314
    9    15    44	5 ;      CG311      CG311       HGA1
   14    15    44	5 ;      CG314      CG311       HGA1
   14    16    17	5 ;      CG314      NG3P3       HGP2
   14    16    19	5 ;      CG314      NG3P3       HGP2
   14    16    18	5 ;      CG314      NG3P3       HGP2
   17    16    19	5 ;       HGP2      NG3P3       HGP2
   17    16    18	5 ;       HGP2      NG3P3       HGP2
   19    16    18	5 ;       HGP2      NG3P3       HGP2
   21    20    15	5 ;       HGP1      OG311      CG311
   23    22     3	5 ;      CG311      OG301     CG2R61
   27    23    24	5 ;      CG302      CG311      CG321
   27    23    22	5 ;      CG302      CG311      OG301
   27    23    45	5 ;      CG302      CG311       HGA1
   24    23    22	5 ;      CG321      CG311      OG301
   24    23    45	5 ;      CG321      CG311       HGA1
   22    23    45	5 ;      OG301      CG311       HGA1
   23    24    25	5 ;      CG311      CG321      OG301
   23    24    46	5 ;      CG311      CG321       HGA2
   23    24    47	5 ;      CG311      CG321       HGA2
   25    24    46	5 ;      OG301      CG321       HGA2
   25    24    47	5 ;      OG301      CG321       HGA2
   46    24    47	5 ;       HGA2      CG321       HGA2
   24    25    26	5 ;      CG321      OG301      CG331
   25    26    48	5 ;      OG301      CG331       HGA3
   25    26    49	5 ;      OG301      CG331       HGA3
   25    26    50	5 ;      OG301      CG331       HGA3
   48    26    49	5 ;       HGA3      CG331       HGA3
   48    26    50	5 ;       HGA3      CG331       HGA3
   49    26    50	5 ;       HGA3      CG331       HGA3
   28    27    29	5 ;       FGA3      CG302       FGA3
   28    27    30	5 ;       FGA3      CG302       FGA3
   28    27    23	5 ;       FGA3      CG302      CG311
   29    27    30	5 ;       FGA3      CG302       FGA3
   29    27    23	5 ;       FGA3      CG302      CG311
   30    27    23	5 ;       FGA3      CG302      CG311
    4    31    33	5 ;     CG2R61      NG2S3       HGP4
    4    31    32	5 ;     CG2R61      NG2S3       HGP4
   33    31    32	5 ;       HGP4      NG2S3       HGP4

[ dihedrals ]
;	ai	  aj	ak	  al funct			  c0			c1			  c2			c3			  c4			c5
    2     1     8     9	 9 ;     CG2R61     CG2R61      CG321      CG311
    2     1     8    36	 9 ;     CG2R61     CG2R61      CG321       HGA2
    2     1     8    37	 9 ;     CG2R61     CG2R61      CG321       HGA2
    7     1     8     9	 9 ;     CG2R61     CG2R61      CG321      CG311
    7     1     8    36	 9 ;     CG2R61     CG2R61      CG321       HGA2
    7     1     8    37	 9 ;     CG2R61     CG2R61      CG321       HGA2
    8     1     2     3	 9 ;      CG321     CG2R61     CG2R61     CG2R61
    8     1     2    34	 9 ;      CG321     CG2R61     CG2R61      HGR61
    7     1     2     3	 9 ;     CG2R61     CG2R61     CG2R61     CG2R61
    7     1     2    34	 9 ;     CG2R61     CG2R61     CG2R61      HGR61
    8     1     7     5	 9 ;      CG321     CG2R61     CG2R61     CG2R66
    8     1     7    35	 9 ;      CG321     CG2R61     CG2R61      HGR62
    2     1     7     5	 9 ;     CG2R61     CG2R61     CG2R61     CG2R66
    2     1     7    35	 9 ;     CG2R61     CG2R61     CG2R61      HGR62
    1     2     3    22	 9 ;     CG2R61     CG2R61     CG2R61      OG301
    1     2     3     4	 9 ;     CG2R61     CG2R61     CG2R61     CG2R61
   34     2     3    22	 9 ;      HGR61     CG2R61     CG2R61      OG301
   34     2     3     4	 9 ;      HGR61     CG2R61     CG2R61     CG2R61
    2     3    22    23	 9 ;     CG2R61     CG2R61      OG301      CG311
    4     3    22    23	 9 ;     CG2R61     CG2R61      OG301      CG311
    2     3     4     5	 9 ;     CG2R61     CG2R61     CG2R61     CG2R66
    2     3     4    31	 9 ;     CG2R61     CG2R61     CG2R61      NG2S3
   22     3     4     5	 9 ;      OG301     CG2R61     CG2R61     CG2R66
   22     3     4    31	 9 ;      OG301     CG2R61     CG2R61      NG2S3
    3     4     5     7	 9 ;     CG2R61     CG2R61     CG2R66     CG2R61
    3     4     5     6	 9 ;     CG2R61     CG2R61     CG2R66       FGR1
   31     4     5     7	 9 ;      NG2S3     CG2R61     CG2R66     CG2R61
   31     4     5     6	 9 ;      NG2S3     CG2R61     CG2R66       FGR1
    3     4    31    33	 9 ;     CG2R61     CG2R61      NG2S3       HGP4
    3     4    31    32	 9 ;     CG2R61     CG2R61      NG2S3       HGP4
    5     4    31    33	 9 ;     CG2R66     CG2R61      NG2S3       HGP4
    5     4    31    32	 9 ;     CG2R66     CG2R61      NG2S3       HGP4
    4     5     7     1	 9 ;     CG2R61     CG2R66     CG2R61     CG2R61
    4     5     7    35	 9 ;     CG2R61     CG2R66     CG2R61      HGR62
    6     5     7     1	 9 ;       FGR1     CG2R66     CG2R61     CG2R61
    6     5     7    35	 9 ;       FGR1     CG2R66     CG2R61      HGR62
    1     8     9    10	 9 ;     CG2R61      CG321      CG311      CG321
    1     8     9    15	 9 ;     CG2R61      CG321      CG311      CG311
    1     8     9    38	 9 ;     CG2R61      CG321      CG311       HGA1
   36     8     9    10	 9 ;       HGA2      CG321      CG311      CG321
   36     8     9    15	 9 ;       HGA2      CG321      CG311      CG311
   36     8     9    38	 9 ;       HGA2      CG321      CG311       HGA1
   37     8     9    10	 9 ;       HGA2      CG321      CG311      CG321
   37     8     9    15	 9 ;       HGA2      CG321      CG311      CG311
   37     8     9    38	 9 ;       HGA2      CG321      CG311       HGA1
   15     9    10    11	 9 ;      CG311      CG311      CG321      SG3O3
   15     9    10    39	 9 ;      CG311      CG311      CG321       HGA2
   15     9    10    40	 9 ;      CG311      CG311      CG321       HGA2
    8     9    10    11	 9 ;      CG321      CG311      CG321      SG3O3
    8     9    10    39	 9 ;      CG321      CG311      CG321       HGA2
    8     9    10    40	 9 ;      CG321      CG311      CG321       HGA2
   38     9    10    11	 9 ;       HGA1      CG311      CG321      SG3O3
   38     9    10    39	 9 ;       HGA1      CG311      CG321       HGA2
   38     9    10    40	 9 ;       HGA1      CG311      CG321       HGA2
   10     9    15    20	 9 ;      CG321      CG311      CG311      OG311
   10     9    15    14	 9 ;      CG321      CG311      CG311      CG314
   10     9    15    44	 9 ;      CG321      CG311      CG311       HGA1
    8     9    15    20	 9 ;      CG321      CG311      CG311      OG311
    8     9    15    14	 9 ;      CG321      CG311      CG311      CG314
    8     9    15    44	 9 ;      CG321      CG311      CG311       HGA1
   38     9    15    20	 9 ;       HGA1      CG311      CG311      OG311
   38     9    15    14	 9 ;       HGA1      CG311      CG311      CG314
   38     9    15    44	 9 ;       HGA1      CG311      CG311       HGA1
    9    10    11    13	 9 ;      CG311      CG321      SG3O3      CG321
    9    10    11    12	 9 ;      CG311      CG321      SG3O3      OG2P1
   39    10    11    13	 9 ;       HGA2      CG321      SG3O3      CG321
   39    10    11    12	 9 ;       HGA2      CG321      SG3O3      OG2P1
   40    10    11    13	 9 ;       HGA2      CG321      SG3O3      CG321
   40    10    11    12	 9 ;       HGA2      CG321      SG3O3      OG2P1
   10    11    13    14	 9 ;      CG321      SG3O3      CG321      CG314
   10    11    13    41	 9 ;      CG321      SG3O3      CG321       HGA2
   10    11    13    42	 9 ;      CG321      SG3O3      CG321       HGA2
   12    11    13    14	 9 ;      OG2P1      SG3O3      CG321      CG314
   12    11    13    41	 9 ;      OG2P1      SG3O3      CG321       HGA2
   12    11    13    42	 9 ;      OG2P1      SG3O3      CG321       HGA2
   11    13    14    15	 9 ;      SG3O3      CG321      CG314      CG311
   11    13    14    16	 9 ;      SG3O3      CG321      CG314      NG3P3
   11    13    14    43	 9 ;      SG3O3      CG321      CG314       HGA1
   41    13    14    15	 9 ;       HGA2      CG321      CG314      CG311
   41    13    14    16	 9 ;       HGA2      CG321      CG314      NG3P3
   41    13    14    43	 9 ;       HGA2      CG321      CG314       HGA1
   42    13    14    15	 9 ;       HGA2      CG321      CG314      CG311
   42    13    14    16	 9 ;       HGA2      CG321      CG314      NG3P3
   42    13    14    43	 9 ;       HGA2      CG321      CG314       HGA1
   13    14    15    20	 9 ;      CG321      CG314      CG311      OG311
   13    14    15     9	 9 ;      CG321      CG314      CG311      CG311
   13    14    15    44	 9 ;      CG321      CG314      CG311       HGA1
   16    14    15    20	 9 ;      NG3P3      CG314      CG311      OG311
   16    14    15     9	 9 ;      NG3P3      CG314      CG311      CG311
   16    14    15    44	 9 ;      NG3P3      CG314      CG311       HGA1
   43    14    15    20	 9 ;       HGA1      CG314      CG311      OG311
   43    14    15     9	 9 ;       HGA1      CG314      CG311      CG311
   43    14    15    44	 9 ;       HGA1      CG314      CG311       HGA1
   13    14    16    17	 9 ;      CG321      CG314      NG3P3       HGP2
   13    14    16    19	 9 ;      CG321      CG314      NG3P3       HGP2
   13    14    16    18	 9 ;      CG321      CG314      NG3P3       HGP2
   15    14    16    17	 9 ;      CG311      CG314      NG3P3       HGP2
   15    14    16    19	 9 ;      CG311      CG314      NG3P3       HGP2
   15    14    16    18	 9 ;      CG311      CG314      NG3P3       HGP2
   43    14    16    17	 9 ;       HGA1      CG314      NG3P3       HGP2
   43    14    16    19	 9 ;       HGA1      CG314      NG3P3       HGP2
   43    14    16    18	 9 ;       HGA1      CG314      NG3P3       HGP2
    9    15    20    21	 9 ;      CG311      CG311      OG311       HGP1
   14    15    20    21	 9 ;      CG314      CG311      OG311       HGP1
   44    15    20    21	 9 ;       HGA1      CG311      OG311       HGP1
    3    22    23    27	 9 ;     CG2R61      OG301      CG311      CG302
    3    22    23    24	 9 ;     CG2R61      OG301      CG311      CG321
    3    22    23    45	 9 ;     CG2R61      OG301      CG311       HGA1
   24    23    27    28	 9 ;      CG321      CG311      CG302       FGA3
   24    23    27    29	 9 ;      CG321      CG311      CG302       FGA3
   24    23    27    30	 9 ;      CG321      CG311      CG302       FGA3
   22    23    27    28	 9 ;      OG301      CG311      CG302       FGA3
   22    23    27    29	 9 ;      OG301      CG311      CG302       FGA3
   22    23    27    30	 9 ;      OG301      CG311      CG302       FGA3
   45    23    27    28	 9 ;       HGA1      CG311      CG302       FGA3
   45    23    27    29	 9 ;       HGA1      CG311      CG302       FGA3
   45    23    27    30	 9 ;       HGA1      CG311      CG302       FGA3
   27    23    24    25	 9 ;      CG302      CG311      CG321      OG301
   27    23    24    46	 9 ;      CG302      CG311      CG321       HGA2
   27    23    24    47	 9 ;      CG302      CG311      CG321       HGA2
   22    23    24    25	 9 ;      OG301      CG311      CG321      OG301
   22    23    24    46	 9 ;      OG301      CG311      CG321       HGA2
   22    23    24    47	 9 ;      OG301      CG311      CG321       HGA2
   45    23    24    25	 9 ;       HGA1      CG311      CG321      OG301
   45    23    24    46	 9 ;       HGA1      CG311      CG321       HGA2
   45    23    24    47	 9 ;       HGA1      CG311      CG321       HGA2
   23    24    25    26	 9 ;      CG311      CG321      OG301      CG331
   46    24    25    26	 9 ;       HGA2      CG321      OG301      CG331
   47    24    25    26	 9 ;       HGA2      CG321      OG301      CG331
   24    25    26    48	 9 ;      CG321      OG301      CG331       HGA3
   24    25    26    49	 9 ;      CG321      OG301      CG331       HGA3
   24    25    26    50	 9 ;      CG321      OG301      CG331       HGA3

[ dihedrals ]
;	ai	  aj	ak	  al funct			  c0			c1			  c2			c3
   31    32    33     4	 2

