GRowing Old MAkes el Chrono Sweat
   50
    1LIG     C1    1  -1.512   0.294  -1.545
    1LIG     C2    2  -1.485   0.432  -1.538
    1LIG     C3    3  -1.558   0.519  -1.454
    1LIG     C4    4  -1.667   0.468  -1.381
    1LIG     C5    5  -1.688   0.329  -1.384
    1LIG     F1    6  -1.787   0.277  -1.310
    1LIG     C6    7  -1.614   0.244  -1.465
    1LIG     C7    8  -1.434   0.206  -1.640
    1LIG     C8    9  -1.281   0.220  -1.630
    1LIG     C9   10  -1.227   0.317  -1.735
    1LIG      S   11  -1.048   0.349  -1.709
    1LIG     O1   12  -1.030   0.375  -1.562
    1LIG    C10   13  -0.995   0.176  -1.733
    1LIG    C11   14  -1.060   0.085  -1.628
    1LIG    C12   15  -1.214   0.081  -1.643
    1LIG     N1   16  -1.019   0.127  -1.489
    1LIG     H1   17  -1.007   0.229  -1.477
    1LIG     H2   18  -1.086   0.095  -1.418
    1LIG     H3   19  -0.929   0.082  -1.462
    1LIG     O2   20  -1.245   0.026  -1.771
    1LIG     H4   21  -1.303  -0.052  -1.761
    1LIG     O3   22  -1.515   0.648  -1.464
    1LIG    C13   23  -1.585   0.742  -1.548
    1LIG    C14   24  -1.603   0.870  -1.466
    1LIG     O4   25  -1.717   0.864  -1.382
    1LIG    C15   26  -1.838   0.850  -1.457
    1LIG    C16   27  -1.507   0.769  -1.677
    1LIG     F2   28  -1.562   0.702  -1.782
    1LIG     F3   29  -1.513   0.900  -1.711
    1LIG     F4   30  -1.377   0.733  -1.671
    1LIG     N2   31  -1.747   0.546  -1.296
    1LIG     H5   32  -1.739   0.516  -1.198
    1LIG     H6   33  -1.845   0.546  -1.323
    1LIG     H7   34  -1.408   0.471  -1.595
    1LIG     H8   35  -1.635   0.143  -1.466
    1LIG     H9   36  -1.461   0.105  -1.620
    1LIG    H10   37  -1.461   0.238  -1.739
    1LIG    H11   38  -1.257   0.260  -1.533
    1LIG    H12   39  -1.241   0.275  -1.833
    1LIG    H13   40  -1.280   0.410  -1.727
    1LIG    H14   41  -0.889   0.171  -1.724
    1LIG    H15   42  -1.026   0.144  -1.830
    1LIG    H16   43  -1.023  -0.014  -1.644
    1LIG    H17   44  -1.252   0.020  -1.563
    1LIG    H18   45  -1.680   0.702  -1.578
    1LIG    H19   46  -1.613   0.952  -1.533
    1LIG    H20   47  -1.517   0.881  -1.404
    1LIG    H21   48  -1.921   0.846  -1.390
    1LIG    H22   49  -1.834   0.759  -1.514
    1LIG    H23   50  -1.849   0.933  -1.523
   0.00000   0.00000   0.00000
