; Created by cgenff_charmm2gmx.py

[ moleculetype ]
; Name			   nrexcl
LIG				 3

[ atoms ]
;	 nr		  type	resnr residue  atom   cgnr	   charge		mass  typeB    chargeB		massB
; residue	 1 LIG rtp LIG q	qsum
     1      CG2O1      1    LIG     C1      1      0.302     12.011   ;
     2      OG2D1      1    LIG     O1      2     -0.463     15.999   ;
     3      NG2S1      1    LIG     N1      3     -0.238     14.007   ;
     4       HGP1      1    LIG     H1      4      0.262      1.008   ;
     5      CG311      1    LIG     C2      5      0.001     12.011   ;
     6      CG321      1    LIG     C3      6      0.009     12.011   ;
     7      OG301      1    LIG     O2      7     -0.177     15.999   ;
     8     CG2R61      1    LIG     C4      8      0.384     12.011   ;
     9     CG2R61      1    LIG     C5      9     -0.410     12.011   ;
    10     CG2R66      1    LIG     C6     10      0.283     12.011   ;
    11       FGR1      1    LIG     F1     11     -0.210     18.998   ;
    12     CG2R61      1    LIG     C7     12     -0.240     12.011   ;
    13     CG2R66      1    LIG     C8     13      0.283     12.011   ;
    14       FGR1      1    LIG     F2     14     -0.210     18.998   ;
    15     CG2R61      1    LIG     C9     15     -0.410     12.011   ;
    16      CG311      1    LIG    C10     16      0.124     12.011   ;
    17      OG311      1    LIG     O3     17     -0.648     15.999   ;
    18       HGP1      1    LIG     H2     18      0.421      1.008   ;
    19      CG321      1    LIG    C11     19     -0.131     12.011   ;
    20      CG311      1    LIG    C12     20      0.099     12.011   ;
    21      CG321      1    LIG    C13     21     -0.022     12.011   ;
    22      OG301      1    LIG     O4     22     -0.381     15.999   ;
    23     CG2R61      1    LIG    C14     23      0.222     12.011   ;
    24     CG2R61      1    LIG    C15     24     -0.119     12.011   ;
    25     CG2R61      1    LIG    C16     25     -0.113     12.011   ;
    26     CG2R61      1    LIG    C17     26     -0.116     12.011   ;
    27     CG2R61      1    LIG    C18     27     -0.113     12.011   ;
    28     CG2R61      1    LIG    C19     28     -0.119     12.011   ;
    29      OG301      1    LIG     O5     29     -0.392     15.999   ;
    30      CG331      1    LIG    C20     30     -0.091     12.011   ;
    31     CG2R61      1    LIG    C21     31     -0.101     12.011   ;
    32     CG2R61      1    LIG    C22     32     -0.004     12.011   ;
    33     CG2R61      1    LIG    C23     33     -0.101     12.011   ;
    34     CG2R61      1    LIG    C24     34     -0.064     12.011   ;
    35     CG2R61      1    LIG    C25     35      0.138     12.011   ;
    36     CG2R61      1    LIG    C26     36     -0.064     12.011   ;
    37      CG2O1      1    LIG    C27     37      0.320     12.011   ;
    38      OG2D1      1    LIG     O6     38     -0.463     15.999   ;
    39      NG2S1      1    LIG     N2     39     -0.366     14.007   ;
    40       HGP1      1    LIG     H3     40      0.314      1.008   ;
    41      CG311      1    LIG    C28     41      0.138     12.011   ;
    42      CG331      1    LIG    C29     42     -0.265     12.011   ;
    43     CG2R61      1    LIG    C30     43     -0.111     12.011   ;
    44     CG2R61      1    LIG    C31     44     -0.086     12.011   ;
    45     CG2R61      1    LIG    C32     45     -0.114     12.011   ;
    46     CG2R61      1    LIG    C33     46     -0.116     12.011   ;
    47     CG2R61      1    LIG    C34     47     -0.114     12.011   ;
    48     CG2R61      1    LIG    C35     48     -0.086     12.011   ;
    49      NG301      1    LIG     N3     49     -0.228     14.007   ;
    50      CG331      1    LIG    C36     50     -0.103     12.011   ;
    51      SG3O2      1    LIG      S     51      0.397     32.060   ;
    52      OG2P1      1    LIG     O7     52     -0.388     15.999   ;
    53      OG2P1      1    LIG     O8     53     -0.388     15.999   ;
    54      CG331      1    LIG    C37     54      0.036     12.011   ;
    55       HGA1      1    LIG     HC     55      0.090      1.008   ;
    56       HGA2      1    LIG    HC2     56      0.090      1.008   ;
    57       HGA2      1    LIG    HC3     57      0.090      1.008   ;
    58      HGR62      1    LIG    HC1     58      0.179      1.008   ;
    59      HGR62      1    LIG    HC4     59      0.186      1.008   ;
    60      HGR62      1    LIG    HC5     60      0.179      1.008   ;
    61       HGA1      1    LIG    HC6     61      0.090      1.008   ;
    62       HGA2      1    LIG    HC7     62      0.090      1.008   ;
    63       HGA2      1    LIG    HC8     63      0.090      1.008   ;
    64       HGA1      1    LIG    HC9     64      0.090      1.008   ;
    65       HGA2      1    LIG   HC10     65      0.090      1.008   ;
    66       HGA2      1    LIG   HC11     66      0.090      1.008   ;
    67      HGR61      1    LIG   HC12     67      0.116      1.008   ;
    68      HGR61      1    LIG   HC13     68      0.116      1.008   ;
    69      HGR61      1    LIG   HC14     69      0.116      1.008   ;
    70      HGR61      1    LIG   HC15     70      0.116      1.008   ;
    71      HGR61      1    LIG   HC16     71      0.116      1.008   ;
    72       HGA3      1    LIG   HC17     72      0.090      1.008   ;
    73       HGA3      1    LIG   HC18     73      0.090      1.008   ;
    74       HGA3      1    LIG   HC19     74      0.090      1.008   ;
    75      HGR61      1    LIG   HC20     75      0.116      1.008   ;
    76      HGR61      1    LIG   HC21     76      0.116      1.008   ;
    77      HGR61      1    LIG   HC22     77      0.116      1.008   ;
    78       HGA1      1    LIG   HC23     78      0.090      1.008   ;
    79       HGA3      1    LIG   HC24     79      0.090      1.008   ;
    80       HGA3      1    LIG   HC25     80      0.090      1.008   ;
    81       HGA3      1    LIG   HC26     81      0.090      1.008   ;
    82      HGR61      1    LIG   HC27     82      0.116      1.008   ;
    83      HGR61      1    LIG   HC28     83      0.116      1.008   ;
    84      HGR61      1    LIG   HC29     84      0.116      1.008   ;
    85      HGR61      1    LIG   HC30     85      0.116      1.008   ;
    86      HGR61      1    LIG   HC31     86      0.116      1.008   ;
    87       HGA3      1    LIG   HC32     87      0.090      1.008   ;
    88       HGA3      1    LIG   HC33     88      0.090      1.008   ;
    89       HGA3      1    LIG   HC34     89      0.090      1.008   ;
    90       HGA3      1    LIG   HC35     90      0.090      1.008   ;
    91       HGA3      1    LIG   HC36     91      0.090      1.008   ;
    92       HGA3      1    LIG   HC37     92      0.090      1.008   ;

[ bonds ]
;	ai	  aj funct			  c0			c1			  c2			c3
    1     3	 1 ;       CG2O1      NG2S1
    1     2	 1 ;       CG2O1      OG2D1
    1    31	 1 ;       CG2O1     CG2R61
    3     5	 1 ;       NG2S1      CG311
    3     4	 1 ;       NG2S1       HGP1
    5     6	 1 ;       CG311      CG321
    5    16	 1 ;       CG311      CG311
    5    55	 1 ;       CG311       HGA1
    6     7	 1 ;       CG321      OG301
    6    56	 1 ;       CG321       HGA2
    6    57	 1 ;       CG321       HGA2
    7     8	 1 ;       OG301     CG2R61
    8    15	 1 ;      CG2R61     CG2R61
    8     9	 1 ;      CG2R61     CG2R61
    9    10	 1 ;      CG2R61     CG2R66
    9    58	 1 ;      CG2R61      HGR62
   10    12	 1 ;      CG2R66     CG2R61
   10    11	 1 ;      CG2R66       FGR1
   12    13	 1 ;      CG2R61     CG2R66
   12    59	 1 ;      CG2R61      HGR62
   13    15	 1 ;      CG2R66     CG2R61
   13    14	 1 ;      CG2R66       FGR1
   15    60	 1 ;      CG2R61      HGR62
   16    17	 1 ;       CG311      OG311
   16    19	 1 ;       CG311      CG321
   16    61	 1 ;       CG311       HGA1
   17    18	 1 ;       OG311       HGP1
   19    20	 1 ;       CG321      CG311
   19    62	 1 ;       CG321       HGA2
   19    63	 1 ;       CG321       HGA2
   20    29	 1 ;       CG311      OG301
   20    21	 1 ;       CG311      CG321
   20    64	 1 ;       CG311       HGA1
   21    22	 1 ;       CG321      OG301
   21    65	 1 ;       CG321       HGA2
   21    66	 1 ;       CG321       HGA2
   22    23	 1 ;       OG301     CG2R61
   23    24	 1 ;      CG2R61     CG2R61
   23    28	 1 ;      CG2R61     CG2R61
   24    25	 1 ;      CG2R61     CG2R61
   24    67	 1 ;      CG2R61      HGR61
   25    26	 1 ;      CG2R61     CG2R61
   25    68	 1 ;      CG2R61      HGR61
   26    27	 1 ;      CG2R61     CG2R61
   26    69	 1 ;      CG2R61      HGR61
   27    28	 1 ;      CG2R61     CG2R61
   27    70	 1 ;      CG2R61      HGR61
   28    71	 1 ;      CG2R61      HGR61
   29    30	 1 ;       OG301      CG331
   30    72	 1 ;       CG331       HGA3
   30    73	 1 ;       CG331       HGA3
   30    74	 1 ;       CG331       HGA3
   31    36	 1 ;      CG2R61     CG2R61
   31    32	 1 ;      CG2R61     CG2R61
   32    33	 1 ;      CG2R61     CG2R61
   32    75	 1 ;      CG2R61      HGR61
   33    34	 1 ;      CG2R61     CG2R61
   33    37	 1 ;      CG2R61      CG2O1
   34    35	 1 ;      CG2R61     CG2R61
   34    76	 1 ;      CG2R61      HGR61
   35    36	 1 ;      CG2R61     CG2R61
   35    49	 1 ;      CG2R61      NG301
   36    77	 1 ;      CG2R61      HGR61
   37    38	 1 ;       CG2O1      OG2D1
   37    39	 1 ;       CG2O1      NG2S1
   39    40	 1 ;       NG2S1       HGP1
   39    41	 1 ;       NG2S1      CG311
   41    42	 1 ;       CG311      CG331
   41    43	 1 ;       CG311     CG2R61
   41    78	 1 ;       CG311       HGA1
   42    79	 1 ;       CG331       HGA3
   42    80	 1 ;       CG331       HGA3
   42    81	 1 ;       CG331       HGA3
   43    44	 1 ;      CG2R61     CG2R61
   43    48	 1 ;      CG2R61     CG2R61
   44    45	 1 ;      CG2R61     CG2R61
   44    82	 1 ;      CG2R61      HGR61
   45    46	 1 ;      CG2R61     CG2R61
   45    83	 1 ;      CG2R61      HGR61
   46    47	 1 ;      CG2R61     CG2R61
   46    84	 1 ;      CG2R61      HGR61
   47    48	 1 ;      CG2R61     CG2R61
   47    85	 1 ;      CG2R61      HGR61
   48    86	 1 ;      CG2R61      HGR61
   49    51	 1 ;       NG301      SG3O2
   49    50	 1 ;       NG301      CG331
   50    87	 1 ;       CG331       HGA3
   50    88	 1 ;       CG331       HGA3
   50    89	 1 ;       CG331       HGA3
   51    54	 1 ;       SG3O2      CG331
   51    52	 1 ;       SG3O2      OG2P1
   51    53	 1 ;       SG3O2      OG2P1
   54    90	 1 ;       CG331       HGA3
   54    91	 1 ;       CG331       HGA3
   54    92	 1 ;       CG331       HGA3

[ pairs ]
;	ai	  aj funct			  c0			c1			  c2			c3
    1     6	 1
    1    16	 1
    1    55	 1
    1    35	 1
    1    77	 1
    1    33	 1
    1    75	 1
    2     5	 1
    2     4	 1
    2    36	 1
    2    32	 1
    3    36	 1
    3    32	 1
    3     7	 1
    3    56	 1
    3    57	 1
    3    17	 1
    3    19	 1
    3    61	 1
    4    31	 1
    4     6	 1
    4    16	 1
    4    55	 1
    5    31	 1
    5     8	 1
    5    18	 1
    5    20	 1
    5    62	 1
    5    63	 1
    6    17	 1
    6    19	 1
    6    61	 1
    6    15	 1
    6     9	 1
    7    16	 1
    7    55	 1
    7    13	 1
    7    60	 1
    7    10	 1
    7    58	 1
    8    56	 1
    8    57	 1
    8    12	 1
    8    11	 1
    8    14	 1
    9    13	 1
    9    60	 1
    9    59	 1
   10    15	 1
   10    14	 1
   11    58	 1
   11    13	 1
   11    59	 1
   12    58	 1
   12    60	 1
   14    59	 1
   14    60	 1
   15    58	 1
   15    59	 1
   16    56	 1
   16    57	 1
   16    29	 1
   16    21	 1
   16    64	 1
   17    55	 1
   17    20	 1
   17    62	 1
   17    63	 1
   18    19	 1
   18    61	 1
   19    55	 1
   19    30	 1
   19    22	 1
   19    65	 1
   19    66	 1
   20    61	 1
   20    23	 1
   20    72	 1
   20    73	 1
   20    74	 1
   21    62	 1
   21    63	 1
   21    30	 1
   21    24	 1
   21    28	 1
   22    29	 1
   22    64	 1
   22    25	 1
   22    67	 1
   22    27	 1
   22    71	 1
   23    65	 1
   23    66	 1
   23    26	 1
   23    68	 1
   23    70	 1
   24    27	 1
   24    71	 1
   24    69	 1
   25    28	 1
   25    70	 1
   26    67	 1
   26    71	 1
   27    68	 1
   28    67	 1
   28    69	 1
   29    62	 1
   29    63	 1
   29    65	 1
   29    66	 1
   30    64	 1
   31    34	 1
   31    37	 1
   31    49	 1
   32    35	 1
   32    77	 1
   32    76	 1
   32    38	 1
   32    39	 1
   33    36	 1
   33    49	 1
   33    40	 1
   33    41	 1
   34    75	 1
   34    38	 1
   34    39	 1
   34    77	 1
   34    51	 1
   34    50	 1
   35    37	 1
   35    54	 1
   35    52	 1
   35    53	 1
   35    87	 1
   35    88	 1
   35    89	 1
   36    75	 1
   36    76	 1
   36    51	 1
   36    50	 1
   37    75	 1
   37    76	 1
   37    42	 1
   37    43	 1
   37    78	 1
   38    40	 1
   38    41	 1
   39    79	 1
   39    80	 1
   39    81	 1
   39    44	 1
   39    48	 1
   40    42	 1
   40    43	 1
   40    78	 1
   41    45	 1
   41    82	 1
   41    47	 1
   41    86	 1
   42    44	 1
   42    48	 1
   43    79	 1
   43    80	 1
   43    81	 1
   43    46	 1
   43    83	 1
   43    85	 1
   44    78	 1
   44    47	 1
   44    86	 1
   44    84	 1
   45    48	 1
   45    85	 1
   46    82	 1
   46    86	 1
   47    83	 1
   48    78	 1
   48    82	 1
   48    84	 1
   49    76	 1
   49    77	 1
   49    90	 1
   49    91	 1
   49    92	 1
   50    54	 1
   50    52	 1
   50    53	 1
   51    87	 1
   51    88	 1
   51    89	 1
   52    90	 1
   52    91	 1
   52    92	 1
   53    90	 1
   53    91	 1
   53    92	 1
   55    56	 1
   55    57	 1
   55    61	 1
   61    62	 1
   61    63	 1
   62    64	 1
   63    64	 1
   64    65	 1
   64    66	 1
   67    68	 1
   68    69	 1
   69    70	 1
   70    71	 1
   78    79	 1
   78    80	 1
   78    81	 1
   82    83	 1
   83    84	 1
   84    85	 1
   85    86	 1

[ angles ]
;	ai	  aj	ak funct			c0			  c1			c2			  c3
    3     1     2	5 ;      NG2S1      CG2O1      OG2D1
    3     1    31	5 ;      NG2S1      CG2O1     CG2R61
    2     1    31	5 ;      OG2D1      CG2O1     CG2R61
    5     3     4	5 ;      CG311      NG2S1       HGP1
    5     3     1	5 ;      CG311      NG2S1      CG2O1
    4     3     1	5 ;       HGP1      NG2S1      CG2O1
    6     5    16	5 ;      CG321      CG311      CG311
    6     5     3	5 ;      CG321      CG311      NG2S1
    6     5    55	5 ;      CG321      CG311       HGA1
   16     5     3	5 ;      CG311      CG311      NG2S1
   16     5    55	5 ;      CG311      CG311       HGA1
    3     5    55	5 ;      NG2S1      CG311       HGA1
    5     6     7	5 ;      CG311      CG321      OG301
    5     6    56	5 ;      CG311      CG321       HGA2
    5     6    57	5 ;      CG311      CG321       HGA2
    7     6    56	5 ;      OG301      CG321       HGA2
    7     6    57	5 ;      OG301      CG321       HGA2
   56     6    57	5 ;       HGA2      CG321       HGA2
    6     7     8	5 ;      CG321      OG301     CG2R61
    7     8    15	5 ;      OG301     CG2R61     CG2R61
    7     8     9	5 ;      OG301     CG2R61     CG2R61
   15     8     9	5 ;     CG2R61     CG2R61     CG2R61
    8     9    10	5 ;     CG2R61     CG2R61     CG2R66
    8     9    58	5 ;     CG2R61     CG2R61      HGR62
   10     9    58	5 ;     CG2R66     CG2R61      HGR62
    9    10    12	5 ;     CG2R61     CG2R66     CG2R61
    9    10    11	5 ;     CG2R61     CG2R66       FGR1
   12    10    11	5 ;     CG2R61     CG2R66       FGR1
   13    12    10	5 ;     CG2R66     CG2R61     CG2R66
   13    12    59	5 ;     CG2R66     CG2R61      HGR62
   10    12    59	5 ;     CG2R66     CG2R61      HGR62
   15    13    14	5 ;     CG2R61     CG2R66       FGR1
   15    13    12	5 ;     CG2R61     CG2R66     CG2R61
   14    13    12	5 ;       FGR1     CG2R66     CG2R61
    8    15    13	5 ;     CG2R61     CG2R61     CG2R66
    8    15    60	5 ;     CG2R61     CG2R61      HGR62
   13    15    60	5 ;     CG2R66     CG2R61      HGR62
   17    16    19	5 ;      OG311      CG311      CG321
   17    16     5	5 ;      OG311      CG311      CG311
   17    16    61	5 ;      OG311      CG311       HGA1
   19    16     5	5 ;      CG321      CG311      CG311
   19    16    61	5 ;      CG321      CG311       HGA1
    5    16    61	5 ;      CG311      CG311       HGA1
   18    17    16	5 ;       HGP1      OG311      CG311
   16    19    20	5 ;      CG311      CG321      CG311
   16    19    62	5 ;      CG311      CG321       HGA2
   16    19    63	5 ;      CG311      CG321       HGA2
   20    19    62	5 ;      CG311      CG321       HGA2
   20    19    63	5 ;      CG311      CG321       HGA2
   62    19    63	5 ;       HGA2      CG321       HGA2
   29    20    19	5 ;      OG301      CG311      CG321
   29    20    21	5 ;      OG301      CG311      CG321
   29    20    64	5 ;      OG301      CG311       HGA1
   19    20    21	5 ;      CG321      CG311      CG321
   19    20    64	5 ;      CG321      CG311       HGA1
   21    20    64	5 ;      CG321      CG311       HGA1
   20    21    22	5 ;      CG311      CG321      OG301
   20    21    65	5 ;      CG311      CG321       HGA2
   20    21    66	5 ;      CG311      CG321       HGA2
   22    21    65	5 ;      OG301      CG321       HGA2
   22    21    66	5 ;      OG301      CG321       HGA2
   65    21    66	5 ;       HGA2      CG321       HGA2
   21    22    23	5 ;      CG321      OG301     CG2R61
   22    23    24	5 ;      OG301     CG2R61     CG2R61
   22    23    28	5 ;      OG301     CG2R61     CG2R61
   24    23    28	5 ;     CG2R61     CG2R61     CG2R61
   23    24    25	5 ;     CG2R61     CG2R61     CG2R61
   23    24    67	5 ;     CG2R61     CG2R61      HGR61
   25    24    67	5 ;     CG2R61     CG2R61      HGR61
   24    25    26	5 ;     CG2R61     CG2R61     CG2R61
   24    25    68	5 ;     CG2R61     CG2R61      HGR61
   26    25    68	5 ;     CG2R61     CG2R61      HGR61
   25    26    27	5 ;     CG2R61     CG2R61     CG2R61
   25    26    69	5 ;     CG2R61     CG2R61      HGR61
   27    26    69	5 ;     CG2R61     CG2R61      HGR61
   28    27    26	5 ;     CG2R61     CG2R61     CG2R61
   28    27    70	5 ;     CG2R61     CG2R61      HGR61
   26    27    70	5 ;     CG2R61     CG2R61      HGR61
   23    28    27	5 ;     CG2R61     CG2R61     CG2R61
   23    28    71	5 ;     CG2R61     CG2R61      HGR61
   27    28    71	5 ;     CG2R61     CG2R61      HGR61
   30    29    20	5 ;      CG331      OG301      CG311
   29    30    72	5 ;      OG301      CG331       HGA3
   29    30    73	5 ;      OG301      CG331       HGA3
   29    30    74	5 ;      OG301      CG331       HGA3
   72    30    73	5 ;       HGA3      CG331       HGA3
   72    30    74	5 ;       HGA3      CG331       HGA3
   73    30    74	5 ;       HGA3      CG331       HGA3
    1    31    36	5 ;      CG2O1     CG2R61     CG2R61
    1    31    32	5 ;      CG2O1     CG2R61     CG2R61
   36    31    32	5 ;     CG2R61     CG2R61     CG2R61
   31    32    33	5 ;     CG2R61     CG2R61     CG2R61
   31    32    75	5 ;     CG2R61     CG2R61      HGR61
   33    32    75	5 ;     CG2R61     CG2R61      HGR61
   32    33    34	5 ;     CG2R61     CG2R61     CG2R61
   32    33    37	5 ;     CG2R61     CG2R61      CG2O1
   34    33    37	5 ;     CG2R61     CG2R61      CG2O1
   35    34    33	5 ;     CG2R61     CG2R61     CG2R61
   35    34    76	5 ;     CG2R61     CG2R61      HGR61
   33    34    76	5 ;     CG2R61     CG2R61      HGR61
   36    35    34	5 ;     CG2R61     CG2R61     CG2R61
   36    35    49	5 ;     CG2R61     CG2R61      NG301
   34    35    49	5 ;     CG2R61     CG2R61      NG301
   31    36    35	5 ;     CG2R61     CG2R61     CG2R61
   31    36    77	5 ;     CG2R61     CG2R61      HGR61
   35    36    77	5 ;     CG2R61     CG2R61      HGR61
   33    37    38	5 ;     CG2R61      CG2O1      OG2D1
   33    37    39	5 ;     CG2R61      CG2O1      NG2S1
   38    37    39	5 ;      OG2D1      CG2O1      NG2S1
   37    39    40	5 ;      CG2O1      NG2S1       HGP1
   37    39    41	5 ;      CG2O1      NG2S1      CG311
   40    39    41	5 ;       HGP1      NG2S1      CG311
   39    41    42	5 ;      NG2S1      CG311      CG331
   39    41    43	5 ;      NG2S1      CG311     CG2R61
   39    41    78	5 ;      NG2S1      CG311       HGA1
   42    41    43	5 ;      CG331      CG311     CG2R61
   42    41    78	5 ;      CG331      CG311       HGA1
   43    41    78	5 ;     CG2R61      CG311       HGA1
   41    42    79	5 ;      CG311      CG331       HGA3
   41    42    80	5 ;      CG311      CG331       HGA3
   41    42    81	5 ;      CG311      CG331       HGA3
   79    42    80	5 ;       HGA3      CG331       HGA3
   79    42    81	5 ;       HGA3      CG331       HGA3
   80    42    81	5 ;       HGA3      CG331       HGA3
   41    43    44	5 ;      CG311     CG2R61     CG2R61
   41    43    48	5 ;      CG311     CG2R61     CG2R61
   44    43    48	5 ;     CG2R61     CG2R61     CG2R61
   43    44    45	5 ;     CG2R61     CG2R61     CG2R61
   43    44    82	5 ;     CG2R61     CG2R61      HGR61
   45    44    82	5 ;     CG2R61     CG2R61      HGR61
   44    45    46	5 ;     CG2R61     CG2R61     CG2R61
   44    45    83	5 ;     CG2R61     CG2R61      HGR61
   46    45    83	5 ;     CG2R61     CG2R61      HGR61
   45    46    47	5 ;     CG2R61     CG2R61     CG2R61
   45    46    84	5 ;     CG2R61     CG2R61      HGR61
   47    46    84	5 ;     CG2R61     CG2R61      HGR61
   48    47    46	5 ;     CG2R61     CG2R61     CG2R61
   48    47    85	5 ;     CG2R61     CG2R61      HGR61
   46    47    85	5 ;     CG2R61     CG2R61      HGR61
   43    48    47	5 ;     CG2R61     CG2R61     CG2R61
   43    48    86	5 ;     CG2R61     CG2R61      HGR61
   47    48    86	5 ;     CG2R61     CG2R61      HGR61
   35    49    51	5 ;     CG2R61      NG301      SG3O2
   35    49    50	5 ;     CG2R61      NG301      CG331
   51    49    50	5 ;      SG3O2      NG301      CG331
   49    50    87	5 ;      NG301      CG331       HGA3
   49    50    88	5 ;      NG301      CG331       HGA3
   49    50    89	5 ;      NG301      CG331       HGA3
   87    50    88	5 ;       HGA3      CG331       HGA3
   87    50    89	5 ;       HGA3      CG331       HGA3
   88    50    89	5 ;       HGA3      CG331       HGA3
   54    51    49	5 ;      CG331      SG3O2      NG301
   54    51    52	5 ;      CG331      SG3O2      OG2P1
   54    51    53	5 ;      CG331      SG3O2      OG2P1
   49    51    52	5 ;      NG301      SG3O2      OG2P1
   49    51    53	5 ;      NG301      SG3O2      OG2P1
   52    51    53	5 ;      OG2P1      SG3O2      OG2P1
   51    54    90	5 ;      SG3O2      CG331       HGA3
   51    54    91	5 ;      SG3O2      CG331       HGA3
   51    54    92	5 ;      SG3O2      CG331       HGA3
   90    54    91	5 ;       HGA3      CG331       HGA3
   90    54    92	5 ;       HGA3      CG331       HGA3
   91    54    92	5 ;       HGA3      CG331       HGA3

[ dihedrals ]
;	ai	  aj	ak	  al funct			  c0			c1			  c2			c3			  c4			c5
    2     1     3     5	 9 ;      OG2D1      CG2O1      NG2S1      CG311
    2     1     3     4	 9 ;      OG2D1      CG2O1      NG2S1       HGP1
   31     1     3     5	 9 ;     CG2R61      CG2O1      NG2S1      CG311
   31     1     3     4	 9 ;     CG2R61      CG2O1      NG2S1       HGP1
    3     1    31    36	 9 ;      NG2S1      CG2O1     CG2R61     CG2R61
    3     1    31    32	 9 ;      NG2S1      CG2O1     CG2R61     CG2R61
    2     1    31    36	 9 ;      OG2D1      CG2O1     CG2R61     CG2R61
    2     1    31    32	 9 ;      OG2D1      CG2O1     CG2R61     CG2R61
    4     3     5     6	 9 ;       HGP1      NG2S1      CG311      CG321
    4     3     5    16	 9 ;       HGP1      NG2S1      CG311      CG311
    4     3     5    55	 9 ;       HGP1      NG2S1      CG311       HGA1
    1     3     5     6	 9 ;      CG2O1      NG2S1      CG311      CG321
    1     3     5    16	 9 ;      CG2O1      NG2S1      CG311      CG311
    1     3     5    55	 9 ;      CG2O1      NG2S1      CG311       HGA1
   16     5     6     7	 9 ;      CG311      CG311      CG321      OG301
   16     5     6    56	 9 ;      CG311      CG311      CG321       HGA2
   16     5     6    57	 9 ;      CG311      CG311      CG321       HGA2
    3     5     6     7	 9 ;      NG2S1      CG311      CG321      OG301
    3     5     6    56	 9 ;      NG2S1      CG311      CG321       HGA2
    3     5     6    57	 9 ;      NG2S1      CG311      CG321       HGA2
   55     5     6     7	 9 ;       HGA1      CG311      CG321      OG301
   55     5     6    56	 9 ;       HGA1      CG311      CG321       HGA2
   55     5     6    57	 9 ;       HGA1      CG311      CG321       HGA2
    6     5    16    17	 9 ;      CG321      CG311      CG311      OG311
    6     5    16    19	 9 ;      CG321      CG311      CG311      CG321
    6     5    16    61	 9 ;      CG321      CG311      CG311       HGA1
    3     5    16    17	 9 ;      NG2S1      CG311      CG311      OG311
    3     5    16    19	 9 ;      NG2S1      CG311      CG311      CG321
    3     5    16    61	 9 ;      NG2S1      CG311      CG311       HGA1
   55     5    16    17	 9 ;       HGA1      CG311      CG311      OG311
   55     5    16    19	 9 ;       HGA1      CG311      CG311      CG321
   55     5    16    61	 9 ;       HGA1      CG311      CG311       HGA1
    5     6     7     8	 9 ;      CG311      CG321      OG301     CG2R61
   56     6     7     8	 9 ;       HGA2      CG321      OG301     CG2R61
   57     6     7     8	 9 ;       HGA2      CG321      OG301     CG2R61
    6     7     8    15	 9 ;      CG321      OG301     CG2R61     CG2R61
    6     7     8     9	 9 ;      CG321      OG301     CG2R61     CG2R61
    7     8    15    13	 9 ;      OG301     CG2R61     CG2R61     CG2R66
    7     8    15    60	 9 ;      OG301     CG2R61     CG2R61      HGR62
    9     8    15    13	 9 ;     CG2R61     CG2R61     CG2R61     CG2R66
    9     8    15    60	 9 ;     CG2R61     CG2R61     CG2R61      HGR62
    7     8     9    10	 9 ;      OG301     CG2R61     CG2R61     CG2R66
    7     8     9    58	 9 ;      OG301     CG2R61     CG2R61      HGR62
   15     8     9    10	 9 ;     CG2R61     CG2R61     CG2R61     CG2R66
   15     8     9    58	 9 ;     CG2R61     CG2R61     CG2R61      HGR62
    8     9    10    12	 9 ;     CG2R61     CG2R61     CG2R66     CG2R61
    8     9    10    11	 9 ;     CG2R61     CG2R61     CG2R66       FGR1
   58     9    10    12	 9 ;      HGR62     CG2R61     CG2R66     CG2R61
   58     9    10    11	 9 ;      HGR62     CG2R61     CG2R66       FGR1
    9    10    12    13	 9 ;     CG2R61     CG2R66     CG2R61     CG2R66
    9    10    12    59	 9 ;     CG2R61     CG2R66     CG2R61      HGR62
   11    10    12    13	 9 ;       FGR1     CG2R66     CG2R61     CG2R66
   11    10    12    59	 9 ;       FGR1     CG2R66     CG2R61      HGR62
   10    12    13    15	 9 ;     CG2R66     CG2R61     CG2R66     CG2R61
   10    12    13    14	 9 ;     CG2R66     CG2R61     CG2R66       FGR1
   59    12    13    15	 9 ;      HGR62     CG2R61     CG2R66     CG2R61
   59    12    13    14	 9 ;      HGR62     CG2R61     CG2R66       FGR1
   14    13    15     8	 9 ;       FGR1     CG2R66     CG2R61     CG2R61
   14    13    15    60	 9 ;       FGR1     CG2R66     CG2R61      HGR62
   12    13    15     8	 9 ;     CG2R61     CG2R66     CG2R61     CG2R61
   12    13    15    60	 9 ;     CG2R61     CG2R66     CG2R61      HGR62
   19    16    17    18	 9 ;      CG321      CG311      OG311       HGP1
    5    16    17    18	 9 ;      CG311      CG311      OG311       HGP1
   61    16    17    18	 9 ;       HGA1      CG311      OG311       HGP1
   17    16    19    20	 9 ;      OG311      CG311      CG321      CG311
   17    16    19    62	 9 ;      OG311      CG311      CG321       HGA2
   17    16    19    63	 9 ;      OG311      CG311      CG321       HGA2
    5    16    19    20	 9 ;      CG311      CG311      CG321      CG311
    5    16    19    62	 9 ;      CG311      CG311      CG321       HGA2
    5    16    19    63	 9 ;      CG311      CG311      CG321       HGA2
   61    16    19    20	 9 ;       HGA1      CG311      CG321      CG311
   61    16    19    62	 9 ;       HGA1      CG311      CG321       HGA2
   61    16    19    63	 9 ;       HGA1      CG311      CG321       HGA2
   16    19    20    29	 9 ;      CG311      CG321      CG311      OG301
   16    19    20    21	 9 ;      CG311      CG321      CG311      CG321
   16    19    20    64	 9 ;      CG311      CG321      CG311       HGA1
   62    19    20    29	 9 ;       HGA2      CG321      CG311      OG301
   62    19    20    21	 9 ;       HGA2      CG321      CG311      CG321
   62    19    20    64	 9 ;       HGA2      CG321      CG311       HGA1
   63    19    20    29	 9 ;       HGA2      CG321      CG311      OG301
   63    19    20    21	 9 ;       HGA2      CG321      CG311      CG321
   63    19    20    64	 9 ;       HGA2      CG321      CG311       HGA1
   19    20    29    30	 9 ;      CG321      CG311      OG301      CG331
   21    20    29    30	 9 ;      CG321      CG311      OG301      CG331
   64    20    29    30	 9 ;       HGA1      CG311      OG301      CG331
   29    20    21    22	 9 ;      OG301      CG311      CG321      OG301
   29    20    21    65	 9 ;      OG301      CG311      CG321       HGA2
   29    20    21    66	 9 ;      OG301      CG311      CG321       HGA2
   19    20    21    22	 9 ;      CG321      CG311      CG321      OG301
   19    20    21    65	 9 ;      CG321      CG311      CG321       HGA2
   19    20    21    66	 9 ;      CG321      CG311      CG321       HGA2
   64    20    21    22	 9 ;       HGA1      CG311      CG321      OG301
   64    20    21    65	 9 ;       HGA1      CG311      CG321       HGA2
   64    20    21    66	 9 ;       HGA1      CG311      CG321       HGA2
   20    21    22    23	 9 ;      CG311      CG321      OG301     CG2R61
   65    21    22    23	 9 ;       HGA2      CG321      OG301     CG2R61
   66    21    22    23	 9 ;       HGA2      CG321      OG301     CG2R61
   21    22    23    24	 9 ;      CG321      OG301     CG2R61     CG2R61
   21    22    23    28	 9 ;      CG321      OG301     CG2R61     CG2R61
   22    23    24    25	 9 ;      OG301     CG2R61     CG2R61     CG2R61
   22    23    24    67	 9 ;      OG301     CG2R61     CG2R61      HGR61
   28    23    24    25	 9 ;     CG2R61     CG2R61     CG2R61     CG2R61
   28    23    24    67	 9 ;     CG2R61     CG2R61     CG2R61      HGR61
   22    23    28    27	 9 ;      OG301     CG2R61     CG2R61     CG2R61
   22    23    28    71	 9 ;      OG301     CG2R61     CG2R61      HGR61
   24    23    28    27	 9 ;     CG2R61     CG2R61     CG2R61     CG2R61
   24    23    28    71	 9 ;     CG2R61     CG2R61     CG2R61      HGR61
   23    24    25    26	 9 ;     CG2R61     CG2R61     CG2R61     CG2R61
   23    24    25    68	 9 ;     CG2R61     CG2R61     CG2R61      HGR61
   67    24    25    26	 9 ;      HGR61     CG2R61     CG2R61     CG2R61
   67    24    25    68	 9 ;      HGR61     CG2R61     CG2R61      HGR61
   24    25    26    27	 9 ;     CG2R61     CG2R61     CG2R61     CG2R61
   24    25    26    69	 9 ;     CG2R61     CG2R61     CG2R61      HGR61
   68    25    26    27	 9 ;      HGR61     CG2R61     CG2R61     CG2R61
   68    25    26    69	 9 ;      HGR61     CG2R61     CG2R61      HGR61
   25    26    27    28	 9 ;     CG2R61     CG2R61     CG2R61     CG2R61
   25    26    27    70	 9 ;     CG2R61     CG2R61     CG2R61      HGR61
   69    26    27    28	 9 ;      HGR61     CG2R61     CG2R61     CG2R61
   69    26    27    70	 9 ;      HGR61     CG2R61     CG2R61      HGR61
   26    27    28    23	 9 ;     CG2R61     CG2R61     CG2R61     CG2R61
   26    27    28    71	 9 ;     CG2R61     CG2R61     CG2R61      HGR61
   70    27    28    23	 9 ;      HGR61     CG2R61     CG2R61     CG2R61
   70    27    28    71	 9 ;      HGR61     CG2R61     CG2R61      HGR61
   20    29    30    72	 9 ;      CG311      OG301      CG331       HGA3
   20    29    30    73	 9 ;      CG311      OG301      CG331       HGA3
   20    29    30    74	 9 ;      CG311      OG301      CG331       HGA3
    1    31    36    35	 9 ;      CG2O1     CG2R61     CG2R61     CG2R61
    1    31    36    77	 9 ;      CG2O1     CG2R61     CG2R61      HGR61
   32    31    36    35	 9 ;     CG2R61     CG2R61     CG2R61     CG2R61
   32    31    36    77	 9 ;     CG2R61     CG2R61     CG2R61      HGR61
    1    31    32    33	 9 ;      CG2O1     CG2R61     CG2R61     CG2R61
    1    31    32    75	 9 ;      CG2O1     CG2R61     CG2R61      HGR61
   36    31    32    33	 9 ;     CG2R61     CG2R61     CG2R61     CG2R61
   36    31    32    75	 9 ;     CG2R61     CG2R61     CG2R61      HGR61
   31    32    33    34	 9 ;     CG2R61     CG2R61     CG2R61     CG2R61
   31    32    33    37	 9 ;     CG2R61     CG2R61     CG2R61      CG2O1
   75    32    33    34	 9 ;      HGR61     CG2R61     CG2R61     CG2R61
   75    32    33    37	 9 ;      HGR61     CG2R61     CG2R61      CG2O1
   32    33    34    35	 9 ;     CG2R61     CG2R61     CG2R61     CG2R61
   32    33    34    76	 9 ;     CG2R61     CG2R61     CG2R61      HGR61
   37    33    34    35	 9 ;      CG2O1     CG2R61     CG2R61     CG2R61
   37    33    34    76	 9 ;      CG2O1     CG2R61     CG2R61      HGR61
   32    33    37    38	 9 ;     CG2R61     CG2R61      CG2O1      OG2D1
   32    33    37    39	 9 ;     CG2R61     CG2R61      CG2O1      NG2S1
   34    33    37    38	 9 ;     CG2R61     CG2R61      CG2O1      OG2D1
   34    33    37    39	 9 ;     CG2R61     CG2R61      CG2O1      NG2S1
   33    34    35    36	 9 ;     CG2R61     CG2R61     CG2R61     CG2R61
   33    34    35    49	 9 ;     CG2R61     CG2R61     CG2R61      NG301
   76    34    35    36	 9 ;      HGR61     CG2R61     CG2R61     CG2R61
   76    34    35    49	 9 ;      HGR61     CG2R61     CG2R61      NG301
   34    35    36    31	 9 ;     CG2R61     CG2R61     CG2R61     CG2R61
   34    35    36    77	 9 ;     CG2R61     CG2R61     CG2R61      HGR61
   49    35    36    31	 9 ;      NG301     CG2R61     CG2R61     CG2R61
   49    35    36    77	 9 ;      NG301     CG2R61     CG2R61      HGR61
   36    35    49    51	 9 ;     CG2R61     CG2R61      NG301      SG3O2
   36    35    49    50	 9 ;     CG2R61     CG2R61      NG301      CG331
   34    35    49    51	 9 ;     CG2R61     CG2R61      NG301      SG3O2
   34    35    49    50	 9 ;     CG2R61     CG2R61      NG301      CG331
   33    37    39    40	 9 ;     CG2R61      CG2O1      NG2S1       HGP1
   33    37    39    41	 9 ;     CG2R61      CG2O1      NG2S1      CG311
   38    37    39    40	 9 ;      OG2D1      CG2O1      NG2S1       HGP1
   38    37    39    41	 9 ;      OG2D1      CG2O1      NG2S1      CG311
   37    39    41    42	 9 ;      CG2O1      NG2S1      CG311      CG331
   37    39    41    43	 9 ;      CG2O1      NG2S1      CG311     CG2R61
   37    39    41    78	 9 ;      CG2O1      NG2S1      CG311       HGA1
   40    39    41    42	 9 ;       HGP1      NG2S1      CG311      CG331
   40    39    41    43	 9 ;       HGP1      NG2S1      CG311     CG2R61
   40    39    41    78	 9 ;       HGP1      NG2S1      CG311       HGA1
   39    41    42    79	 9 ;      NG2S1      CG311      CG331       HGA3
   39    41    42    80	 9 ;      NG2S1      CG311      CG331       HGA3
   39    41    42    81	 9 ;      NG2S1      CG311      CG331       HGA3
   43    41    42    79	 9 ;     CG2R61      CG311      CG331       HGA3
   43    41    42    80	 9 ;     CG2R61      CG311      CG331       HGA3
   43    41    42    81	 9 ;     CG2R61      CG311      CG331       HGA3
   78    41    42    79	 9 ;       HGA1      CG311      CG331       HGA3
   78    41    42    80	 9 ;       HGA1      CG311      CG331       HGA3
   78    41    42    81	 9 ;       HGA1      CG311      CG331       HGA3
   39    41    43    44	 9 ;      NG2S1      CG311     CG2R61     CG2R61
   39    41    43    48	 9 ;      NG2S1      CG311     CG2R61     CG2R61
   42    41    43    44	 9 ;      CG331      CG311     CG2R61     CG2R61
   42    41    43    48	 9 ;      CG331      CG311     CG2R61     CG2R61
   78    41    43    44	 9 ;       HGA1      CG311     CG2R61     CG2R61
   78    41    43    48	 9 ;       HGA1      CG311     CG2R61     CG2R61
   41    43    44    45	 9 ;      CG311     CG2R61     CG2R61     CG2R61
   41    43    44    82	 9 ;      CG311     CG2R61     CG2R61      HGR61
   48    43    44    45	 9 ;     CG2R61     CG2R61     CG2R61     CG2R61
   48    43    44    82	 9 ;     CG2R61     CG2R61     CG2R61      HGR61
   41    43    48    47	 9 ;      CG311     CG2R61     CG2R61     CG2R61
   41    43    48    86	 9 ;      CG311     CG2R61     CG2R61      HGR61
   44    43    48    47	 9 ;     CG2R61     CG2R61     CG2R61     CG2R61
   44    43    48    86	 9 ;     CG2R61     CG2R61     CG2R61      HGR61
   43    44    45    46	 9 ;     CG2R61     CG2R61     CG2R61     CG2R61
   43    44    45    83	 9 ;     CG2R61     CG2R61     CG2R61      HGR61
   82    44    45    46	 9 ;      HGR61     CG2R61     CG2R61     CG2R61
   82    44    45    83	 9 ;      HGR61     CG2R61     CG2R61      HGR61
   44    45    46    47	 9 ;     CG2R61     CG2R61     CG2R61     CG2R61
   44    45    46    84	 9 ;     CG2R61     CG2R61     CG2R61      HGR61
   83    45    46    47	 9 ;      HGR61     CG2R61     CG2R61     CG2R61
   83    45    46    84	 9 ;      HGR61     CG2R61     CG2R61      HGR61
   45    46    47    48	 9 ;     CG2R61     CG2R61     CG2R61     CG2R61
   45    46    47    85	 9 ;     CG2R61     CG2R61     CG2R61      HGR61
   84    46    47    48	 9 ;      HGR61     CG2R61     CG2R61     CG2R61
   84    46    47    85	 9 ;      HGR61     CG2R61     CG2R61      HGR61
   46    47    48    43	 9 ;     CG2R61     CG2R61     CG2R61     CG2R61
   46    47    48    86	 9 ;     CG2R61     CG2R61     CG2R61      HGR61
   85    47    48    43	 9 ;      HGR61     CG2R61     CG2R61     CG2R61
   85    47    48    86	 9 ;      HGR61     CG2R61     CG2R61      HGR61
   35    49    51    54	 9 ;     CG2R61      NG301      SG3O2      CG331
   35    49    51    52	 9 ;     CG2R61      NG301      SG3O2      OG2P1
   35    49    51    53	 9 ;     CG2R61      NG301      SG3O2      OG2P1
   50    49    51    54	 9 ;      CG331      NG301      SG3O2      CG331
   50    49    51    52	 9 ;      CG331      NG301      SG3O2      OG2P1
   50    49    51    53	 9 ;      CG331      NG301      SG3O2      OG2P1
   35    49    50    87	 9 ;     CG2R61      NG301      CG331       HGA3
   35    49    50    88	 9 ;     CG2R61      NG301      CG331       HGA3
   35    49    50    89	 9 ;     CG2R61      NG301      CG331       HGA3
   51    49    50    87	 9 ;      SG3O2      NG301      CG331       HGA3
   51    49    50    88	 9 ;      SG3O2      NG301      CG331       HGA3
   51    49    50    89	 9 ;      SG3O2      NG301      CG331       HGA3
   49    51    54    90	 9 ;      NG301      SG3O2      CG331       HGA3
   49    51    54    91	 9 ;      NG301      SG3O2      CG331       HGA3
   49    51    54    92	 9 ;      NG301      SG3O2      CG331       HGA3
   52    51    54    90	 9 ;      OG2P1      SG3O2      CG331       HGA3
   52    51    54    91	 9 ;      OG2P1      SG3O2      CG331       HGA3
   52    51    54    92	 9 ;      OG2P1      SG3O2      CG331       HGA3
   53    51    54    90	 9 ;      OG2P1      SG3O2      CG331       HGA3
   53    51    54    91	 9 ;      OG2P1      SG3O2      CG331       HGA3
   53    51    54    92	 9 ;      OG2P1      SG3O2      CG331       HGA3

[ dihedrals ]
;	ai	  aj	ak	  al funct			  c0			c1			  c2			c3
    1    31     3     2	 2
   37    33    39    38	 2

