Good gRace! Old Maple Actually Chews Slate
   92
    1LIG     C1    1  -1.059   0.427  -1.904
    1LIG     O1    2  -0.994   0.341  -1.963
    1LIG     N1    3  -1.055   0.561  -1.941
    1LIG     H1    4  -1.107   0.630  -1.888
    1LIG     C2    5  -0.962   0.615  -2.046
    1LIG     C3    6  -1.037   0.704  -2.150
    1LIG     O2    7  -1.179   0.681  -2.153
    1LIG     C4    8  -1.265   0.762  -2.084
    1LIG     C5    9  -1.391   0.726  -2.036
    1LIG     C6   10  -1.470   0.821  -1.970
    1LIG     F1   11  -1.591   0.785  -1.925
    1LIG     C7   12  -1.427   0.952  -1.951
    1LIG     C8   13  -1.301   0.987  -1.998
    1LIG     F2   14  -1.257   1.112  -1.980
    1LIG     C9   15  -1.221   0.894  -2.064
    1LIG    C10   16  -0.841   0.692  -1.982
    1LIG     O3   17  -0.735   0.705  -2.079
    1LIG     H2   18  -0.680   0.781  -2.051
    1LIG    C11   19  -0.880   0.833  -1.934
    1LIG    C12   20  -0.822   0.879  -1.796
    1LIG    C13   21  -0.911   0.853  -1.672
    1LIG     O4   22  -0.983   0.728  -1.684
    1LIG    C14   23  -1.107   0.725  -1.625
    1LIG    C15   24  -1.211   0.792  -1.691
    1LIG    C16   25  -1.339   0.798  -1.635
    1LIG    C17   26  -1.365   0.735  -1.513
    1LIG    C18   27  -1.264   0.664  -1.450
    1LIG    C19   28  -1.135   0.658  -1.506
    1LIG     O5   29  -0.689   0.824  -1.784
    1LIG    C20   30  -0.582   0.913  -1.812
    1LIG    C21   31  -1.143   0.388  -1.783
    1LIG    C22   32  -1.280   0.425  -1.782
    1LIG    C23   33  -1.364   0.385  -1.676
    1LIG    C24   34  -1.309   0.313  -1.570
    1LIG    C25   35  -1.171   0.293  -1.561
    1LIG    C26   36  -1.088   0.324  -1.670
    1LIG    C27   37  -1.511   0.414  -1.664
    1LIG     O6   38  -1.553   0.521  -1.708
    1LIG     N2   39  -1.594   0.320  -1.608
    1LIG     H3   40  -1.560   0.228  -1.585
    1LIG    C28   41  -1.739   0.343  -1.600
    1LIG    C29   42  -1.809   0.287  -1.725
    1LIG    C30   43  -1.794   0.293  -1.467
    1LIG    C31   44  -1.748   0.354  -1.349
    1LIG    C32   45  -1.801   0.319  -1.224
    1LIG    C33   46  -1.901   0.222  -1.216
    1LIG    C34   47  -1.948   0.161  -1.331
    1LIG    C35   48  -1.895   0.196  -1.456
    1LIG     N3   49  -1.116   0.255  -1.434
    1LIG    C36   50  -1.167   0.328  -1.315
    1LIG      S   51  -1.061   0.097  -1.408
    1LIG     O7   52  -1.114   0.015  -1.516
    1LIG     O8   53  -1.084   0.060  -1.271
    1LIG    C37   54  -0.885   0.111  -1.436
    1LIG     HC   55  -0.922   0.530  -2.101
    1LIG    HC2   56  -0.997   0.684  -2.249
    1LIG    HC3   57  -1.019   0.809  -2.126
    1LIG    HC1   58  -1.427   0.625  -2.049
    1LIG    HC4   59  -1.490   1.024  -1.901
    1LIG    HC5   60  -1.123   0.923  -2.099
    1LIG    HC6   61  -0.804   0.635  -1.897
    1LIG    HC7   62  -0.847   0.904  -2.009
    1LIG    HC8   63  -0.989   0.837  -1.928
    1LIG    HC9   64  -0.811   0.987  -1.803
    1LIG   HC10   65  -0.847   0.849  -1.583
    1LIG   HC11   66  -0.983   0.934  -1.661
    1LIG   HC12   67  -1.192   0.839  -1.786
    1LIG   HC13   68  -1.418   0.852  -1.686
    1LIG   HC14   69  -1.464   0.740  -1.469
    1LIG   HC15   70  -1.284   0.613  -1.357
    1LIG   HC16   71  -1.058   0.601  -1.456
    1LIG   HC17   72  -0.487   0.861  -1.799
    1LIG   HC18   73  -0.586   0.998  -1.744
    1LIG   HC19   74  -0.590   0.949  -1.915
    1LIG   HC20   75  -1.320   0.484  -1.863
    1LIG   HC21   76  -1.374   0.272  -1.494
    1LIG   HC22   77  -0.983   0.299  -1.667
    1LIG   HC23   78  -1.754   0.451  -1.602
    1LIG   HC24   79  -1.765   0.331  -1.814
    1LIG   HC25   80  -1.797   0.179  -1.728
    1LIG   HC26   81  -1.915   0.311  -1.721
    1LIG   HC27   82  -1.670   0.429  -1.354
    1LIG   HC28   83  -1.764   0.366  -1.135
    1LIG   HC29   84  -1.942   0.196  -1.120
    1LIG   HC30   85  -2.025   0.086  -1.325
    1LIG   HC31   86  -1.931   0.147  -1.545
    1LIG   HC32   87  -1.096   0.319  -1.233
    1LIG   HC33   88  -1.263   0.286  -1.285
    1LIG   HC34   89  -1.180   0.433  -1.340
    1LIG   HC35   90  -0.838   0.013  -1.422
    1LIG   HC36   91  -0.843   0.181  -1.365
    1LIG   HC37   92  -0.867   0.146  -1.538
   0.00000   0.00000   0.00000
