GROup of MAchos and Cynical Suckers
   44
    1LIG     C1    1  -1.375   0.424  -1.511
    1LIG     C2    2  -1.505   0.369  -1.506
    1LIG     C3    3  -1.618   0.438  -1.554
    1LIG     C4    4  -1.597   0.564  -1.611
    1LIG     C5    5  -1.469   0.620  -1.620
    1LIG     C6    6  -1.360   0.550  -1.570
    1LIG     C7    7  -1.253   0.345  -1.455
    1LIG     C8    8  -1.306   0.225  -1.373
    1LIG      S    9  -1.206   0.074  -1.375
    1LIG     C9   10  -1.178   0.067  -1.552
    1LIG    C10   11  -1.124   0.198  -1.604
    1LIG     N1   12  -1.158   0.315  -1.564
    1LIG     HN   13  -1.116   0.395  -1.612
    1LIG    C11   14  -1.174   0.441  -1.362
    1LIG     N2   15  -1.033   0.194  -1.706
    1LIG     H1   16  -1.046   0.127  -1.781
    1LIG     H2   17  -1.005   0.287  -1.737
    1LIG    C12   18  -1.754   0.377  -1.547
    1LIG    C13   19  -1.843   0.412  -1.444
    1LIG    C14   20  -1.972   0.357  -1.437
    1LIG    C15   21  -2.013   0.267  -1.535
    1LIG    C16   22  -1.926   0.230  -1.637
    1LIG    C17   23  -1.798   0.284  -1.643
    1LIG      O   24  -2.066   0.385  -1.341
    1LIG    C18   25  -2.158   0.489  -1.370
    1LIG     HC   26  -1.518   0.271  -1.463
    1LIG    HC1   27  -1.682   0.621  -1.648
    1LIG    HC2   28  -1.456   0.717  -1.665
    1LIG    HC3   29  -1.261   0.594  -1.578
    1LIG    HC4   30  -1.405   0.199  -1.412
    1LIG    HC5   31  -1.317   0.257  -1.270
    1LIG    HC6   32  -1.107  -0.012  -1.574
    1LIG    HC7   33  -1.273   0.045  -1.602
    1LIG    HC8   34  -1.137   0.525  -1.420
    1LIG    HC9   35  -1.239   0.477  -1.283
    1LIG   HC10   36  -1.089   0.387  -1.319
    1LIG   HC11   37  -1.812   0.483  -1.369
    1LIG   HC12   38  -2.112   0.225  -1.531
    1LIG   HC13   39  -1.959   0.160  -1.713
    1LIG   HC14   40  -1.731   0.254  -1.722
    1LIG   HC15   41  -2.227   0.502  -1.286
    1LIG   HC16   42  -2.104   0.583  -1.386
    1LIG   HC17   43  -2.214   0.464  -1.460
    1LIG    H22   44  -1.043   0.195  -1.531
   0.00000   0.00000   0.00000
