; Created by cgenff_charmm2gmx.py

[ moleculetype ]
; Name			   nrexcl
LIG				 3

[ atoms ]
;	 nr		  type	resnr residue  atom   cgnr	   charge		mass  typeB    chargeB		massB
; residue	 1 LIG rtp LIG q	qsum
     1      NG2S1      1    LIG     N1      1     -0.385     14.007   ;
     2      CG2O1      1    LIG     C1      2      0.497     12.011   ;
     3      OG2D1      1    LIG     O1      3     -0.509     15.999   ;
     4       HGP1      1    LIG     H1      4      0.269      1.008   ;
     5      CG311      1    LIG     C2      5     -0.029     12.011   ;
     6      CG321      1    LIG     C3      6     -0.095     12.011   ;
     7     CG2R61      1    LIG     C4      7      0.057     12.011   ;
     8     CG2R61      1    LIG     C5      8     -0.218     12.011   ;
     9     CG2R66      1    LIG     C6      9      0.261     12.011   ;
    10       FGR1      1    LIG     F1     10     -0.210     18.998   ;
    11     CG2R61      1    LIG     C7     11     -0.240     12.011   ;
    12     CG2R66      1    LIG     C8     12      0.261     12.011   ;
    13     CG2R61      1    LIG     C9     13     -0.218     12.011   ;
    14       FGR1      1    LIG     F2     14     -0.210     18.998   ;
    15      CG311      1    LIG    C10     15      0.111     12.011   ;
    16      OG311      1    LIG     O2     16     -0.598     15.999   ;
    17       HGP1      1    LIG     H2     17      0.422      1.008   ;
    18      CG314      1    LIG    C11     18      0.081     12.011   ;
    19      NG3P2      1    LIG     N2     19     -0.494     14.007   ;
    20      CG324      1    LIG    C12     20      0.181     12.011   ;
    21       HGP2      1    LIG     H3     21      0.346      1.008   ;
    22       HGP2      1    LIG     H4     22      0.346      1.008   ;
    23     CG2R61      1    LIG    C13     23      0.019     12.011   ;
    24     CG2R61      1    LIG    C14     24     -0.193     12.011   ;
    25     CG2R61      1    LIG    C15     25     -0.115     12.011   ;
    26      CG321      1    LIG    C16     26      0.138     12.011   ;
    27     CG2R61      1    LIG    C17     27     -0.116     12.011   ;
    28     CG2R61      1    LIG    C18     28     -0.112     12.011   ;
    29     CG2R61      1    LIG    C19     29     -0.111     12.011   ;
    30      CG311      1    LIG    C20     30      0.051     12.011   ;
    31     NG2R53      1    LIG     N3     31     -0.115     14.007   ;
    32     CG3C52      1    LIG    C21     32     -0.083     12.011   ;
    33     CG3C52      1    LIG    C22     33     -0.365     12.011   ;
    34     CG3C50      1    LIG    C23     34      0.578     12.011   ;
    35     CG2R53      1    LIG    C24     35      0.040     12.011   ;
    36      OG2D1      1    LIG     O3     36     -0.404     15.999   ;
    37      CG311      1    LIG    C25     37     -0.157     12.011   ;
    38      CG331      1    LIG    C26     38     -0.269     12.011   ;
    39      CG321      1    LIG    C27     39     -0.126     12.011   ;
    40      CG331      1    LIG    C28     40     -0.319     12.011   ;
    41      NG2S1      1    LIG     N4     41     -0.174     14.007   ;
    42      CG2O1      1    LIG    C29     42      0.398     12.011   ;
    43      OG2D1      1    LIG     O4     43     -0.536     15.999   ;
    44      CG331      1    LIG    C30     44     -0.269     12.011   ;
    45       HGP1      1    LIG     H5     45      0.256      1.008   ;
    46      CG321      1    LIG    C31     46     -0.187     12.011   ;
    47      CG321      1    LIG    C32     47     -0.185     12.011   ;
    48     CG2R61      1    LIG    C33     48      0.007     12.011   ;
    49     CG2R61      1    LIG    C34     49     -0.123     12.011   ;
    50     CG2R61      1    LIG    C35     50     -0.112     12.011   ;
    51     CG2R61      1    LIG    C36     51     -0.116     12.011   ;
    52     CG2R61      1    LIG    C37     52     -0.112     12.011   ;
    53     CG2R61      1    LIG    C38     53     -0.123     12.011   ;
    54       HGA1      1    LIG     HC     54      0.090      1.008   ;
    55       HGA2      1    LIG    HC2     55      0.090      1.008   ;
    56       HGA2      1    LIG    HC3     56      0.090      1.008   ;
    57      HGR62      1    LIG    HC1     57      0.174      1.008   ;
    58      HGR62      1    LIG    HC4     58      0.186      1.008   ;
    59      HGR62      1    LIG    HC5     59      0.174      1.008   ;
    60       HGA1      1    LIG    HC6     60      0.090      1.008   ;
    61       HGA1      1    LIG    HC7     61      0.121      1.008   ;
    62       HGA2      1    LIG    HC8     62      0.090      1.008   ;
    63       HGA2      1    LIG    HC9     63      0.090      1.008   ;
    64      HGR61      1    LIG   HC10     64      0.116      1.008   ;
    65       HGA2      1    LIG   HC11     65      0.090      1.008   ;
    66       HGA2      1    LIG   HC12     66      0.090      1.008   ;
    67      HGR61      1    LIG   HC13     67      0.116      1.008   ;
    68      HGR61      1    LIG   HC14     68      0.116      1.008   ;
    69      HGR61      1    LIG   HC15     69      0.116      1.008   ;
    70       HGA1      1    LIG   HC16     70      0.090      1.008   ;
    71       HGA2      1    LIG   HC17     71      0.090      1.008   ;
    72       HGA2      1    LIG   HC18     72      0.090      1.008   ;
    73       HGA2      1    LIG   HC19     73      0.090      1.008   ;
    74       HGA2      1    LIG   HC20     74      0.090      1.008   ;
    75       HGA1      1    LIG   HC21     75      0.090      1.008   ;
    76       HGA3      1    LIG   HC22     76      0.090      1.008   ;
    77       HGA3      1    LIG   HC23     77      0.090      1.008   ;
    78       HGA3      1    LIG   HC24     78      0.090      1.008   ;
    79       HGA2      1    LIG   HC25     79      0.090      1.008   ;
    80       HGA2      1    LIG   HC26     80      0.090      1.008   ;
    81       HGA3      1    LIG   HC27     81      0.090      1.008   ;
    82       HGA3      1    LIG   HC28     82      0.090      1.008   ;
    83       HGA3      1    LIG   HC29     83      0.090      1.008   ;
    84       HGA3      1    LIG   HC30     84      0.090      1.008   ;
    85       HGA3      1    LIG   HC31     85      0.090      1.008   ;
    86       HGA3      1    LIG   HC32     86      0.090      1.008   ;
    87       HGA2      1    LIG   HC33     87      0.090      1.008   ;
    88       HGA2      1    LIG   HC34     88      0.090      1.008   ;
    89       HGA2      1    LIG   HC35     89      0.090      1.008   ;
    90       HGA2      1    LIG   HC36     90      0.090      1.008   ;
    91      HGR61      1    LIG   HC37     91      0.116      1.008   ;
    92      HGR61      1    LIG   HC38     92      0.116      1.008   ;
    93      HGR61      1    LIG   HC39     93      0.116      1.008   ;
    94      HGR61      1    LIG   HC40     94      0.116      1.008   ;
    95      HGR61      1    LIG   HC41     95      0.116      1.008   ;

[ bonds ]
;	ai	  aj funct			  c0			c1			  c2			c3
    1     2	 1 ;       NG2S1      CG2O1
    1     4	 1 ;       NG2S1       HGP1
    1     5	 1 ;       NG2S1      CG311
    2    30	 1 ;       CG2O1      CG311
    2     3	 1 ;       CG2O1      OG2D1
    5    15	 1 ;       CG311      CG311
    5     6	 1 ;       CG311      CG321
    5    54	 1 ;       CG311       HGA1
    6     7	 1 ;       CG321     CG2R61
    6    55	 1 ;       CG321       HGA2
    6    56	 1 ;       CG321       HGA2
    7     8	 1 ;      CG2R61     CG2R61
    7    13	 1 ;      CG2R61     CG2R61
    8     9	 1 ;      CG2R61     CG2R66
    8    57	 1 ;      CG2R61      HGR62
    9    10	 1 ;      CG2R66       FGR1
    9    11	 1 ;      CG2R66     CG2R61
   11    12	 1 ;      CG2R61     CG2R66
   11    58	 1 ;      CG2R61      HGR62
   12    13	 1 ;      CG2R66     CG2R61
   12    14	 1 ;      CG2R66       FGR1
   13    59	 1 ;      CG2R61      HGR62
   15    16	 1 ;       CG311      OG311
   15    18	 1 ;       CG311      CG314
   15    60	 1 ;       CG311       HGA1
   16    17	 1 ;       OG311       HGP1
   18    26	 1 ;       CG314      CG321
   18    19	 1 ;       CG314      NG3P2
   18    61	 1 ;       CG314       HGA1
   19    20	 1 ;       NG3P2      CG324
   19    21	 1 ;       NG3P2       HGP2
   19    22	 1 ;       NG3P2       HGP2
   20    23	 1 ;       CG324     CG2R61
   20    62	 1 ;       CG324       HGA2
   20    63	 1 ;       CG324       HGA2
   23    25	 1 ;      CG2R61     CG2R61
   23    24	 1 ;      CG2R61     CG2R61
   24    26	 1 ;      CG2R61      CG321
   24    27	 1 ;      CG2R61     CG2R61
   25    29	 1 ;      CG2R61     CG2R61
   25    64	 1 ;      CG2R61      HGR61
   26    65	 1 ;       CG321       HGA2
   26    66	 1 ;       CG321       HGA2
   27    28	 1 ;      CG2R61     CG2R61
   27    67	 1 ;      CG2R61      HGR61
   28    29	 1 ;      CG2R61     CG2R61
   28    68	 1 ;      CG2R61      HGR61
   29    69	 1 ;      CG2R61      HGR61
   30    31	 1 ;       CG311     NG2R53
   30    46	 1 ;       CG311      CG321
   30    70	 1 ;       CG311       HGA1
   31    32	 1 ;      NG2R53     CG3C52
   31    35	 1 ;      NG2R53     CG2R53
   32    33	 1 ;      CG3C52     CG3C52
   32    71	 1 ;      CG3C52       HGA2
   32    72	 1 ;      CG3C52       HGA2
   33    34	 1 ;      CG3C52     CG3C50
   33    73	 1 ;      CG3C52       HGA2
   33    74	 1 ;      CG3C52       HGA2
   34    41	 1 ;      CG3C50      NG2S1
   34    37	 1 ;      CG3C50      CG311
   34    35	 1 ;      CG3C50     CG2R53
   35    36	 1 ;      CG2R53      OG2D1
   37    39	 1 ;       CG311      CG321
   37    38	 1 ;       CG311      CG331
   37    75	 1 ;       CG311       HGA1
   38    76	 1 ;       CG331       HGA3
   38    77	 1 ;       CG331       HGA3
   38    78	 1 ;       CG331       HGA3
   39    40	 1 ;       CG321      CG331
   39    79	 1 ;       CG321       HGA2
   39    80	 1 ;       CG321       HGA2
   40    81	 1 ;       CG331       HGA3
   40    82	 1 ;       CG331       HGA3
   40    83	 1 ;       CG331       HGA3
   41    42	 1 ;       NG2S1      CG2O1
   41    45	 1 ;       NG2S1       HGP1
   42    43	 1 ;       CG2O1      OG2D1
   42    44	 1 ;       CG2O1      CG331
   44    84	 1 ;       CG331       HGA3
   44    85	 1 ;       CG331       HGA3
   44    86	 1 ;       CG331       HGA3
   46    47	 1 ;       CG321      CG321
   46    87	 1 ;       CG321       HGA2
   46    88	 1 ;       CG321       HGA2
   47    48	 1 ;       CG321     CG2R61
   47    89	 1 ;       CG321       HGA2
   47    90	 1 ;       CG321       HGA2
   48    53	 1 ;      CG2R61     CG2R61
   48    49	 1 ;      CG2R61     CG2R61
   49    50	 1 ;      CG2R61     CG2R61
   49    91	 1 ;      CG2R61      HGR61
   50    51	 1 ;      CG2R61     CG2R61
   50    92	 1 ;      CG2R61      HGR61
   51    52	 1 ;      CG2R61     CG2R61
   51    93	 1 ;      CG2R61      HGR61
   52    53	 1 ;      CG2R61     CG2R61
   52    94	 1 ;      CG2R61      HGR61
   53    95	 1 ;      CG2R61      HGR61

[ pairs ]
;	ai	  aj funct			  c0			c1			  c2			c3
    1    31	 1
    1    46	 1
    1    70	 1
    1    16	 1
    1    18	 1
    1    60	 1
    1     7	 1
    1    55	 1
    1    56	 1
    2    15	 1
    2     6	 1
    2    54	 1
    2    32	 1
    2    35	 1
    2    47	 1
    2    87	 1
    2    88	 1
    3     4	 1
    3     5	 1
    3    31	 1
    3    46	 1
    3    70	 1
    4    30	 1
    4    15	 1
    4     6	 1
    4    54	 1
    5    30	 1
    5     8	 1
    5    13	 1
    5    17	 1
    5    26	 1
    5    19	 1
    5    61	 1
    6    16	 1
    6    18	 1
    6    60	 1
    6     9	 1
    6    57	 1
    6    12	 1
    6    59	 1
    7    15	 1
    7    54	 1
    7    10	 1
    7    11	 1
    7    14	 1
    8    55	 1
    8    56	 1
    8    12	 1
    8    59	 1
    8    58	 1
    9    13	 1
    9    14	 1
   10    57	 1
   10    12	 1
   10    58	 1
   11    57	 1
   11    59	 1
   13    55	 1
   13    56	 1
   13    57	 1
   13    58	 1
   14    58	 1
   14    59	 1
   15    55	 1
   15    56	 1
   15    24	 1
   15    65	 1
   15    66	 1
   15    20	 1
   15    21	 1
   15    22	 1
   16    54	 1
   16    26	 1
   16    19	 1
   16    61	 1
   17    18	 1
   17    60	 1
   18    54	 1
   18    23	 1
   18    62	 1
   18    63	 1
   18    27	 1
   19    60	 1
   19    24	 1
   19    65	 1
   19    66	 1
   19    25	 1
   20    26	 1
   20    61	 1
   20    29	 1
   20    64	 1
   20    27	 1
   21    26	 1
   21    61	 1
   21    23	 1
   21    62	 1
   21    63	 1
   22    26	 1
   22    61	 1
   22    23	 1
   22    62	 1
   22    63	 1
   23    65	 1
   23    66	 1
   23    28	 1
   23    67	 1
   23    69	 1
   24    61	 1
   24    62	 1
   24    63	 1
   24    29	 1
   24    64	 1
   24    68	 1
   25    62	 1
   25    63	 1
   25    26	 1
   25    27	 1
   25    68	 1
   26    60	 1
   26    28	 1
   26    67	 1
   27    65	 1
   27    66	 1
   27    69	 1
   28    64	 1
   29    67	 1
   30    33	 1
   30    71	 1
   30    72	 1
   30    34	 1
   30    36	 1
   30    48	 1
   30    89	 1
   30    90	 1
   31    47	 1
   31    87	 1
   31    88	 1
   31    73	 1
   31    74	 1
   31    41	 1
   31    37	 1
   32    46	 1
   32    70	 1
   32    36	 1
   32    41	 1
   32    37	 1
   33    42	 1
   33    45	 1
   33    39	 1
   33    38	 1
   33    75	 1
   33    36	 1
   34    71	 1
   34    72	 1
   34    40	 1
   34    79	 1
   34    80	 1
   34    76	 1
   34    77	 1
   34    78	 1
   34    43	 1
   34    44	 1
   35    46	 1
   35    70	 1
   35    71	 1
   35    72	 1
   35    73	 1
   35    74	 1
   35    42	 1
   35    45	 1
   35    39	 1
   35    38	 1
   35    75	 1
   36    41	 1
   36    37	 1
   37    73	 1
   37    74	 1
   37    42	 1
   37    45	 1
   37    81	 1
   37    82	 1
   37    83	 1
   38    41	 1
   38    40	 1
   38    79	 1
   38    80	 1
   39    41	 1
   39    76	 1
   39    77	 1
   39    78	 1
   40    75	 1
   41    73	 1
   41    74	 1
   41    75	 1
   41    84	 1
   41    85	 1
   41    86	 1
   43    45	 1
   43    84	 1
   43    85	 1
   43    86	 1
   44    45	 1
   46    53	 1
   46    49	 1
   47    70	 1
   47    52	 1
   47    95	 1
   47    50	 1
   47    91	 1
   48    87	 1
   48    88	 1
   48    51	 1
   48    92	 1
   48    94	 1
   49    89	 1
   49    90	 1
   49    52	 1
   49    95	 1
   49    93	 1
   50    53	 1
   50    94	 1
   51    91	 1
   51    95	 1
   52    92	 1
   53    89	 1
   53    90	 1
   53    91	 1
   53    93	 1
   54    60	 1
   54    55	 1
   54    56	 1
   60    61	 1
   61    65	 1
   61    66	 1
   64    69	 1
   67    68	 1
   68    69	 1
   70    87	 1
   70    88	 1
   71    73	 1
   71    74	 1
   72    73	 1
   72    74	 1
   75    79	 1
   75    80	 1
   75    76	 1
   75    77	 1
   75    78	 1
   79    81	 1
   79    82	 1
   79    83	 1
   80    81	 1
   80    82	 1
   80    83	 1
   87    89	 1
   87    90	 1
   88    89	 1
   88    90	 1
   91    92	 1
   92    93	 1
   93    94	 1
   94    95	 1

[ angles ]
;	ai	  aj	ak funct			c0			  c1			c2			  c3
    2     1     4	5 ;      CG2O1      NG2S1       HGP1
    2     1     5	5 ;      CG2O1      NG2S1      CG311
    4     1     5	5 ;       HGP1      NG2S1      CG311
   30     2     3	5 ;      CG311      CG2O1      OG2D1
   30     2     1	5 ;      CG311      CG2O1      NG2S1
    3     2     1	5 ;      OG2D1      CG2O1      NG2S1
    1     5    15	5 ;      NG2S1      CG311      CG311
    1     5     6	5 ;      NG2S1      CG311      CG321
    1     5    54	5 ;      NG2S1      CG311       HGA1
   15     5     6	5 ;      CG311      CG311      CG321
   15     5    54	5 ;      CG311      CG311       HGA1
    6     5    54	5 ;      CG321      CG311       HGA1
    5     6     7	5 ;      CG311      CG321     CG2R61
    5     6    55	5 ;      CG311      CG321       HGA2
    5     6    56	5 ;      CG311      CG321       HGA2
    7     6    55	5 ;     CG2R61      CG321       HGA2
    7     6    56	5 ;     CG2R61      CG321       HGA2
   55     6    56	5 ;       HGA2      CG321       HGA2
    6     7     8	5 ;      CG321     CG2R61     CG2R61
    6     7    13	5 ;      CG321     CG2R61     CG2R61
    8     7    13	5 ;     CG2R61     CG2R61     CG2R61
    7     8     9	5 ;     CG2R61     CG2R61     CG2R66
    7     8    57	5 ;     CG2R61     CG2R61      HGR62
    9     8    57	5 ;     CG2R66     CG2R61      HGR62
    8     9    10	5 ;     CG2R61     CG2R66       FGR1
    8     9    11	5 ;     CG2R61     CG2R66     CG2R61
   10     9    11	5 ;       FGR1     CG2R66     CG2R61
    9    11    12	5 ;     CG2R66     CG2R61     CG2R66
    9    11    58	5 ;     CG2R66     CG2R61      HGR62
   12    11    58	5 ;     CG2R66     CG2R61      HGR62
   13    12    11	5 ;     CG2R61     CG2R66     CG2R61
   13    12    14	5 ;     CG2R61     CG2R66       FGR1
   11    12    14	5 ;     CG2R61     CG2R66       FGR1
    7    13    12	5 ;     CG2R61     CG2R61     CG2R66
    7    13    59	5 ;     CG2R61     CG2R61      HGR62
   12    13    59	5 ;     CG2R66     CG2R61      HGR62
   16    15    18	5 ;      OG311      CG311      CG314
   16    15     5	5 ;      OG311      CG311      CG311
   16    15    60	5 ;      OG311      CG311       HGA1
   18    15     5	5 ;      CG314      CG311      CG311
   18    15    60	5 ;      CG314      CG311       HGA1
    5    15    60	5 ;      CG311      CG311       HGA1
   17    16    15	5 ;       HGP1      OG311      CG311
   26    18    15	5 ;      CG321      CG314      CG311
   26    18    19	5 ;      CG321      CG314      NG3P2
   26    18    61	5 ;      CG321      CG314       HGA1
   15    18    19	5 ;      CG311      CG314      NG3P2
   15    18    61	5 ;      CG311      CG314       HGA1
   19    18    61	5 ;      NG3P2      CG314       HGA1
   20    19    18	5 ;      CG324      NG3P2      CG314
   20    19    21	5 ;      CG324      NG3P2       HGP2
   20    19    22	5 ;      CG324      NG3P2       HGP2
   18    19    21	5 ;      CG314      NG3P2       HGP2
   18    19    22	5 ;      CG314      NG3P2       HGP2
   21    19    22	5 ;       HGP2      NG3P2       HGP2
   23    20    19	5 ;     CG2R61      CG324      NG3P2
   23    20    62	5 ;     CG2R61      CG324       HGA2
   23    20    63	5 ;     CG2R61      CG324       HGA2
   19    20    62	5 ;      NG3P2      CG324       HGA2
   19    20    63	5 ;      NG3P2      CG324       HGA2
   62    20    63	5 ;       HGA2      CG324       HGA2
   25    23    24	5 ;     CG2R61     CG2R61     CG2R61
   25    23    20	5 ;     CG2R61     CG2R61      CG324
   24    23    20	5 ;     CG2R61     CG2R61      CG324
   23    24    26	5 ;     CG2R61     CG2R61      CG321
   23    24    27	5 ;     CG2R61     CG2R61     CG2R61
   26    24    27	5 ;      CG321     CG2R61     CG2R61
   29    25    23	5 ;     CG2R61     CG2R61     CG2R61
   29    25    64	5 ;     CG2R61     CG2R61      HGR61
   23    25    64	5 ;     CG2R61     CG2R61      HGR61
   24    26    18	5 ;     CG2R61      CG321      CG314
   24    26    65	5 ;     CG2R61      CG321       HGA2
   24    26    66	5 ;     CG2R61      CG321       HGA2
   18    26    65	5 ;      CG314      CG321       HGA2
   18    26    66	5 ;      CG314      CG321       HGA2
   65    26    66	5 ;       HGA2      CG321       HGA2
   24    27    28	5 ;     CG2R61     CG2R61     CG2R61
   24    27    67	5 ;     CG2R61     CG2R61      HGR61
   28    27    67	5 ;     CG2R61     CG2R61      HGR61
   29    28    27	5 ;     CG2R61     CG2R61     CG2R61
   29    28    68	5 ;     CG2R61     CG2R61      HGR61
   27    28    68	5 ;     CG2R61     CG2R61      HGR61
   25    29    28	5 ;     CG2R61     CG2R61     CG2R61
   25    29    69	5 ;     CG2R61     CG2R61      HGR61
   28    29    69	5 ;     CG2R61     CG2R61      HGR61
   31    30     2	5 ;     NG2R53      CG311      CG2O1
   31    30    46	5 ;     NG2R53      CG311      CG321
   31    30    70	5 ;     NG2R53      CG311       HGA1
    2    30    46	5 ;      CG2O1      CG311      CG321
    2    30    70	5 ;      CG2O1      CG311       HGA1
   46    30    70	5 ;      CG321      CG311       HGA1
   32    31    35	5 ;     CG3C52     NG2R53     CG2R53
   32    31    30	5 ;     CG3C52     NG2R53      CG311
   35    31    30	5 ;     CG2R53     NG2R53      CG311
   33    32    31	5 ;     CG3C52     CG3C52     NG2R53
   33    32    71	5 ;     CG3C52     CG3C52       HGA2
   33    32    72	5 ;     CG3C52     CG3C52       HGA2
   31    32    71	5 ;     NG2R53     CG3C52       HGA2
   31    32    72	5 ;     NG2R53     CG3C52       HGA2
   71    32    72	5 ;       HGA2     CG3C52       HGA2
   34    33    32	5 ;     CG3C50     CG3C52     CG3C52
   34    33    73	5 ;     CG3C50     CG3C52       HGA2
   34    33    74	5 ;     CG3C50     CG3C52       HGA2
   32    33    73	5 ;     CG3C52     CG3C52       HGA2
   32    33    74	5 ;     CG3C52     CG3C52       HGA2
   73    33    74	5 ;       HGA2     CG3C52       HGA2
   33    34    41	5 ;     CG3C52     CG3C50      NG2S1
   33    34    37	5 ;     CG3C52     CG3C50      CG311
   33    34    35	5 ;     CG3C52     CG3C50     CG2R53
   41    34    37	5 ;      NG2S1     CG3C50      CG311
   41    34    35	5 ;      NG2S1     CG3C50     CG2R53
   37    34    35	5 ;      CG311     CG3C50     CG2R53
   34    35    31	5 ;     CG3C50     CG2R53     NG2R53
   34    35    36	5 ;     CG3C50     CG2R53      OG2D1
   31    35    36	5 ;     NG2R53     CG2R53      OG2D1
   34    37    39	5 ;     CG3C50      CG311      CG321
   34    37    38	5 ;     CG3C50      CG311      CG331
   34    37    75	5 ;     CG3C50      CG311       HGA1
   39    37    38	5 ;      CG321      CG311      CG331
   39    37    75	5 ;      CG321      CG311       HGA1
   38    37    75	5 ;      CG331      CG311       HGA1
   37    38    76	5 ;      CG311      CG331       HGA3
   37    38    77	5 ;      CG311      CG331       HGA3
   37    38    78	5 ;      CG311      CG331       HGA3
   76    38    77	5 ;       HGA3      CG331       HGA3
   76    38    78	5 ;       HGA3      CG331       HGA3
   77    38    78	5 ;       HGA3      CG331       HGA3
   37    39    40	5 ;      CG311      CG321      CG331
   37    39    79	5 ;      CG311      CG321       HGA2
   37    39    80	5 ;      CG311      CG321       HGA2
   40    39    79	5 ;      CG331      CG321       HGA2
   40    39    80	5 ;      CG331      CG321       HGA2
   79    39    80	5 ;       HGA2      CG321       HGA2
   39    40    81	5 ;      CG321      CG331       HGA3
   39    40    82	5 ;      CG321      CG331       HGA3
   39    40    83	5 ;      CG321      CG331       HGA3
   81    40    82	5 ;       HGA3      CG331       HGA3
   81    40    83	5 ;       HGA3      CG331       HGA3
   82    40    83	5 ;       HGA3      CG331       HGA3
   42    41    34	5 ;      CG2O1      NG2S1     CG3C50
   42    41    45	5 ;      CG2O1      NG2S1       HGP1
   34    41    45	5 ;     CG3C50      NG2S1       HGP1
   43    42    44	5 ;      OG2D1      CG2O1      CG331
   43    42    41	5 ;      OG2D1      CG2O1      NG2S1
   44    42    41	5 ;      CG331      CG2O1      NG2S1
   42    44    84	5 ;      CG2O1      CG331       HGA3
   42    44    85	5 ;      CG2O1      CG331       HGA3
   42    44    86	5 ;      CG2O1      CG331       HGA3
   84    44    85	5 ;       HGA3      CG331       HGA3
   84    44    86	5 ;       HGA3      CG331       HGA3
   85    44    86	5 ;       HGA3      CG331       HGA3
   30    46    47	5 ;      CG311      CG321      CG321
   30    46    87	5 ;      CG311      CG321       HGA2
   30    46    88	5 ;      CG311      CG321       HGA2
   47    46    87	5 ;      CG321      CG321       HGA2
   47    46    88	5 ;      CG321      CG321       HGA2
   87    46    88	5 ;       HGA2      CG321       HGA2
   48    47    46	5 ;     CG2R61      CG321      CG321
   48    47    89	5 ;     CG2R61      CG321       HGA2
   48    47    90	5 ;     CG2R61      CG321       HGA2
   46    47    89	5 ;      CG321      CG321       HGA2
   46    47    90	5 ;      CG321      CG321       HGA2
   89    47    90	5 ;       HGA2      CG321       HGA2
   53    48    47	5 ;     CG2R61     CG2R61      CG321
   53    48    49	5 ;     CG2R61     CG2R61     CG2R61
   47    48    49	5 ;      CG321     CG2R61     CG2R61
   48    49    50	5 ;     CG2R61     CG2R61     CG2R61
   48    49    91	5 ;     CG2R61     CG2R61      HGR61
   50    49    91	5 ;     CG2R61     CG2R61      HGR61
   51    50    49	5 ;     CG2R61     CG2R61     CG2R61
   51    50    92	5 ;     CG2R61     CG2R61      HGR61
   49    50    92	5 ;     CG2R61     CG2R61      HGR61
   52    51    50	5 ;     CG2R61     CG2R61     CG2R61
   52    51    93	5 ;     CG2R61     CG2R61      HGR61
   50    51    93	5 ;     CG2R61     CG2R61      HGR61
   53    52    51	5 ;     CG2R61     CG2R61     CG2R61
   53    52    94	5 ;     CG2R61     CG2R61      HGR61
   51    52    94	5 ;     CG2R61     CG2R61      HGR61
   52    53    48	5 ;     CG2R61     CG2R61     CG2R61
   52    53    95	5 ;     CG2R61     CG2R61      HGR61
   48    53    95	5 ;     CG2R61     CG2R61      HGR61

[ dihedrals ]
;	ai	  aj	ak	  al funct			  c0			c1			  c2			c3			  c4			c5
    4     1     2    30	 9 ;       HGP1      NG2S1      CG2O1      CG311
    4     1     2     3	 9 ;       HGP1      NG2S1      CG2O1      OG2D1
    5     1     2    30	 9 ;      CG311      NG2S1      CG2O1      CG311
    5     1     2     3	 9 ;      CG311      NG2S1      CG2O1      OG2D1
    2     1     5    15	 9 ;      CG2O1      NG2S1      CG311      CG311
    2     1     5     6	 9 ;      CG2O1      NG2S1      CG311      CG321
    2     1     5    54	 9 ;      CG2O1      NG2S1      CG311       HGA1
    4     1     5    15	 9 ;       HGP1      NG2S1      CG311      CG311
    4     1     5     6	 9 ;       HGP1      NG2S1      CG311      CG321
    4     1     5    54	 9 ;       HGP1      NG2S1      CG311       HGA1
    3     2    30    31	 9 ;      OG2D1      CG2O1      CG311     NG2R53
    3     2    30    46	 9 ;      OG2D1      CG2O1      CG311      CG321
    3     2    30    70	 9 ;      OG2D1      CG2O1      CG311       HGA1
    1     2    30    31	 9 ;      NG2S1      CG2O1      CG311     NG2R53
    1     2    30    46	 9 ;      NG2S1      CG2O1      CG311      CG321
    1     2    30    70	 9 ;      NG2S1      CG2O1      CG311       HGA1
    1     5    15    16	 9 ;      NG2S1      CG311      CG311      OG311
    1     5    15    18	 9 ;      NG2S1      CG311      CG311      CG314
    1     5    15    60	 9 ;      NG2S1      CG311      CG311       HGA1
    6     5    15    16	 9 ;      CG321      CG311      CG311      OG311
    6     5    15    18	 9 ;      CG321      CG311      CG311      CG314
    6     5    15    60	 9 ;      CG321      CG311      CG311       HGA1
   54     5    15    16	 9 ;       HGA1      CG311      CG311      OG311
   54     5    15    18	 9 ;       HGA1      CG311      CG311      CG314
   54     5    15    60	 9 ;       HGA1      CG311      CG311       HGA1
    1     5     6     7	 9 ;      NG2S1      CG311      CG321     CG2R61
    1     5     6    55	 9 ;      NG2S1      CG311      CG321       HGA2
    1     5     6    56	 9 ;      NG2S1      CG311      CG321       HGA2
   15     5     6     7	 9 ;      CG311      CG311      CG321     CG2R61
   15     5     6    55	 9 ;      CG311      CG311      CG321       HGA2
   15     5     6    56	 9 ;      CG311      CG311      CG321       HGA2
   54     5     6     7	 9 ;       HGA1      CG311      CG321     CG2R61
   54     5     6    55	 9 ;       HGA1      CG311      CG321       HGA2
   54     5     6    56	 9 ;       HGA1      CG311      CG321       HGA2
    5     6     7     8	 9 ;      CG311      CG321     CG2R61     CG2R61
    5     6     7    13	 9 ;      CG311      CG321     CG2R61     CG2R61
   55     6     7     8	 9 ;       HGA2      CG321     CG2R61     CG2R61
   55     6     7    13	 9 ;       HGA2      CG321     CG2R61     CG2R61
   56     6     7     8	 9 ;       HGA2      CG321     CG2R61     CG2R61
   56     6     7    13	 9 ;       HGA2      CG321     CG2R61     CG2R61
    6     7     8     9	 9 ;      CG321     CG2R61     CG2R61     CG2R66
    6     7     8    57	 9 ;      CG321     CG2R61     CG2R61      HGR62
   13     7     8     9	 9 ;     CG2R61     CG2R61     CG2R61     CG2R66
   13     7     8    57	 9 ;     CG2R61     CG2R61     CG2R61      HGR62
    6     7    13    12	 9 ;      CG321     CG2R61     CG2R61     CG2R66
    6     7    13    59	 9 ;      CG321     CG2R61     CG2R61      HGR62
    8     7    13    12	 9 ;     CG2R61     CG2R61     CG2R61     CG2R66
    8     7    13    59	 9 ;     CG2R61     CG2R61     CG2R61      HGR62
    7     8     9    10	 9 ;     CG2R61     CG2R61     CG2R66       FGR1
    7     8     9    11	 9 ;     CG2R61     CG2R61     CG2R66     CG2R61
   57     8     9    10	 9 ;      HGR62     CG2R61     CG2R66       FGR1
   57     8     9    11	 9 ;      HGR62     CG2R61     CG2R66     CG2R61
    8     9    11    12	 9 ;     CG2R61     CG2R66     CG2R61     CG2R66
    8     9    11    58	 9 ;     CG2R61     CG2R66     CG2R61      HGR62
   10     9    11    12	 9 ;       FGR1     CG2R66     CG2R61     CG2R66
   10     9    11    58	 9 ;       FGR1     CG2R66     CG2R61      HGR62
    9    11    12    13	 9 ;     CG2R66     CG2R61     CG2R66     CG2R61
    9    11    12    14	 9 ;     CG2R66     CG2R61     CG2R66       FGR1
   58    11    12    13	 9 ;      HGR62     CG2R61     CG2R66     CG2R61
   58    11    12    14	 9 ;      HGR62     CG2R61     CG2R66       FGR1
   11    12    13     7	 9 ;     CG2R61     CG2R66     CG2R61     CG2R61
   11    12    13    59	 9 ;     CG2R61     CG2R66     CG2R61      HGR62
   14    12    13     7	 9 ;       FGR1     CG2R66     CG2R61     CG2R61
   14    12    13    59	 9 ;       FGR1     CG2R66     CG2R61      HGR62
   18    15    16    17	 9 ;      CG314      CG311      OG311       HGP1
    5    15    16    17	 9 ;      CG311      CG311      OG311       HGP1
   60    15    16    17	 9 ;       HGA1      CG311      OG311       HGP1
   16    15    18    26	 9 ;      OG311      CG311      CG314      CG321
   16    15    18    19	 9 ;      OG311      CG311      CG314      NG3P2
   16    15    18    61	 9 ;      OG311      CG311      CG314       HGA1
    5    15    18    26	 9 ;      CG311      CG311      CG314      CG321
    5    15    18    19	 9 ;      CG311      CG311      CG314      NG3P2
    5    15    18    61	 9 ;      CG311      CG311      CG314       HGA1
   60    15    18    26	 9 ;       HGA1      CG311      CG314      CG321
   60    15    18    19	 9 ;       HGA1      CG311      CG314      NG3P2
   60    15    18    61	 9 ;       HGA1      CG311      CG314       HGA1
   15    18    26    24	 9 ;      CG311      CG314      CG321     CG2R61
   15    18    26    65	 9 ;      CG311      CG314      CG321       HGA2
   15    18    26    66	 9 ;      CG311      CG314      CG321       HGA2
   19    18    26    24	 9 ;      NG3P2      CG314      CG321     CG2R61
   19    18    26    65	 9 ;      NG3P2      CG314      CG321       HGA2
   19    18    26    66	 9 ;      NG3P2      CG314      CG321       HGA2
   61    18    26    24	 9 ;       HGA1      CG314      CG321     CG2R61
   61    18    26    65	 9 ;       HGA1      CG314      CG321       HGA2
   61    18    26    66	 9 ;       HGA1      CG314      CG321       HGA2
   26    18    19    20	 9 ;      CG321      CG314      NG3P2      CG324
   26    18    19    21	 9 ;      CG321      CG314      NG3P2       HGP2
   26    18    19    22	 9 ;      CG321      CG314      NG3P2       HGP2
   15    18    19    20	 9 ;      CG311      CG314      NG3P2      CG324
   15    18    19    21	 9 ;      CG311      CG314      NG3P2       HGP2
   15    18    19    22	 9 ;      CG311      CG314      NG3P2       HGP2
   61    18    19    20	 9 ;       HGA1      CG314      NG3P2      CG324
   61    18    19    21	 9 ;       HGA1      CG314      NG3P2       HGP2
   61    18    19    22	 9 ;       HGA1      CG314      NG3P2       HGP2
   18    19    20    23	 9 ;      CG314      NG3P2      CG324     CG2R61
   18    19    20    62	 9 ;      CG314      NG3P2      CG324       HGA2
   18    19    20    63	 9 ;      CG314      NG3P2      CG324       HGA2
   21    19    20    23	 9 ;       HGP2      NG3P2      CG324     CG2R61
   21    19    20    62	 9 ;       HGP2      NG3P2      CG324       HGA2
   21    19    20    63	 9 ;       HGP2      NG3P2      CG324       HGA2
   22    19    20    23	 9 ;       HGP2      NG3P2      CG324     CG2R61
   22    19    20    62	 9 ;       HGP2      NG3P2      CG324       HGA2
   22    19    20    63	 9 ;       HGP2      NG3P2      CG324       HGA2
   19    20    23    25	 9 ;      NG3P2      CG324     CG2R61     CG2R61
   19    20    23    24	 9 ;      NG3P2      CG324     CG2R61     CG2R61
   62    20    23    25	 9 ;       HGA2      CG324     CG2R61     CG2R61
   62    20    23    24	 9 ;       HGA2      CG324     CG2R61     CG2R61
   63    20    23    25	 9 ;       HGA2      CG324     CG2R61     CG2R61
   63    20    23    24	 9 ;       HGA2      CG324     CG2R61     CG2R61
   24    23    25    29	 9 ;     CG2R61     CG2R61     CG2R61     CG2R61
   24    23    25    64	 9 ;     CG2R61     CG2R61     CG2R61      HGR61
   20    23    25    29	 9 ;      CG324     CG2R61     CG2R61     CG2R61
   20    23    25    64	 9 ;      CG324     CG2R61     CG2R61      HGR61
   25    23    24    26	 9 ;     CG2R61     CG2R61     CG2R61      CG321
   25    23    24    27	 9 ;     CG2R61     CG2R61     CG2R61     CG2R61
   20    23    24    26	 9 ;      CG324     CG2R61     CG2R61      CG321
   20    23    24    27	 9 ;      CG324     CG2R61     CG2R61     CG2R61
   23    24    26    18	 9 ;     CG2R61     CG2R61      CG321      CG314
   23    24    26    65	 9 ;     CG2R61     CG2R61      CG321       HGA2
   23    24    26    66	 9 ;     CG2R61     CG2R61      CG321       HGA2
   27    24    26    18	 9 ;     CG2R61     CG2R61      CG321      CG314
   27    24    26    65	 9 ;     CG2R61     CG2R61      CG321       HGA2
   27    24    26    66	 9 ;     CG2R61     CG2R61      CG321       HGA2
   23    24    27    28	 9 ;     CG2R61     CG2R61     CG2R61     CG2R61
   23    24    27    67	 9 ;     CG2R61     CG2R61     CG2R61      HGR61
   26    24    27    28	 9 ;      CG321     CG2R61     CG2R61     CG2R61
   26    24    27    67	 9 ;      CG321     CG2R61     CG2R61      HGR61
   23    25    29    28	 9 ;     CG2R61     CG2R61     CG2R61     CG2R61
   23    25    29    69	 9 ;     CG2R61     CG2R61     CG2R61      HGR61
   64    25    29    28	 9 ;      HGR61     CG2R61     CG2R61     CG2R61
   64    25    29    69	 9 ;      HGR61     CG2R61     CG2R61      HGR61
   24    27    28    29	 9 ;     CG2R61     CG2R61     CG2R61     CG2R61
   24    27    28    68	 9 ;     CG2R61     CG2R61     CG2R61      HGR61
   67    27    28    29	 9 ;      HGR61     CG2R61     CG2R61     CG2R61
   67    27    28    68	 9 ;      HGR61     CG2R61     CG2R61      HGR61
   27    28    29    25	 9 ;     CG2R61     CG2R61     CG2R61     CG2R61
   27    28    29    69	 9 ;     CG2R61     CG2R61     CG2R61      HGR61
   68    28    29    25	 9 ;      HGR61     CG2R61     CG2R61     CG2R61
   68    28    29    69	 9 ;      HGR61     CG2R61     CG2R61      HGR61
    2    30    31    32	 9 ;      CG2O1      CG311     NG2R53     CG3C52
    2    30    31    35	 9 ;      CG2O1      CG311     NG2R53     CG2R53
   46    30    31    32	 9 ;      CG321      CG311     NG2R53     CG3C52
   46    30    31    35	 9 ;      CG321      CG311     NG2R53     CG2R53
   70    30    31    32	 9 ;       HGA1      CG311     NG2R53     CG3C52
   70    30    31    35	 9 ;       HGA1      CG311     NG2R53     CG2R53
   31    30    46    47	 9 ;     NG2R53      CG311      CG321      CG321
   31    30    46    87	 9 ;     NG2R53      CG311      CG321       HGA2
   31    30    46    88	 9 ;     NG2R53      CG311      CG321       HGA2
    2    30    46    47	 9 ;      CG2O1      CG311      CG321      CG321
    2    30    46    87	 9 ;      CG2O1      CG311      CG321       HGA2
    2    30    46    88	 9 ;      CG2O1      CG311      CG321       HGA2
   70    30    46    47	 9 ;       HGA1      CG311      CG321      CG321
   70    30    46    87	 9 ;       HGA1      CG311      CG321       HGA2
   70    30    46    88	 9 ;       HGA1      CG311      CG321       HGA2
   35    31    32    33	 9 ;     CG2R53     NG2R53     CG3C52     CG3C52
   35    31    32    71	 9 ;     CG2R53     NG2R53     CG3C52       HGA2
   35    31    32    72	 9 ;     CG2R53     NG2R53     CG3C52       HGA2
   30    31    32    33	 9 ;      CG311     NG2R53     CG3C52     CG3C52
   30    31    32    71	 9 ;      CG311     NG2R53     CG3C52       HGA2
   30    31    32    72	 9 ;      CG311     NG2R53     CG3C52       HGA2
   32    31    35    34	 9 ;     CG3C52     NG2R53     CG2R53     CG3C50
   32    31    35    36	 9 ;     CG3C52     NG2R53     CG2R53      OG2D1
   30    31    35    34	 9 ;      CG311     NG2R53     CG2R53     CG3C50
   30    31    35    36	 9 ;      CG311     NG2R53     CG2R53      OG2D1
   31    32    33    34	 9 ;     NG2R53     CG3C52     CG3C52     CG3C50
   31    32    33    73	 9 ;     NG2R53     CG3C52     CG3C52       HGA2
   31    32    33    74	 9 ;     NG2R53     CG3C52     CG3C52       HGA2
   71    32    33    34	 9 ;       HGA2     CG3C52     CG3C52     CG3C50
   71    32    33    73	 9 ;       HGA2     CG3C52     CG3C52       HGA2
   71    32    33    74	 9 ;       HGA2     CG3C52     CG3C52       HGA2
   72    32    33    34	 9 ;       HGA2     CG3C52     CG3C52     CG3C50
   72    32    33    73	 9 ;       HGA2     CG3C52     CG3C52       HGA2
   72    32    33    74	 9 ;       HGA2     CG3C52     CG3C52       HGA2
   32    33    34    41	 9 ;     CG3C52     CG3C52     CG3C50      NG2S1
   32    33    34    37	 9 ;     CG3C52     CG3C52     CG3C50      CG311
   32    33    34    35	 9 ;     CG3C52     CG3C52     CG3C50     CG2R53
   73    33    34    41	 9 ;       HGA2     CG3C52     CG3C50      NG2S1
   73    33    34    37	 9 ;       HGA2     CG3C52     CG3C50      CG311
   73    33    34    35	 9 ;       HGA2     CG3C52     CG3C50     CG2R53
   74    33    34    41	 9 ;       HGA2     CG3C52     CG3C50      NG2S1
   74    33    34    37	 9 ;       HGA2     CG3C52     CG3C50      CG311
   74    33    34    35	 9 ;       HGA2     CG3C52     CG3C50     CG2R53
   33    34    41    42	 9 ;     CG3C52     CG3C50      NG2S1      CG2O1
   33    34    41    45	 9 ;     CG3C52     CG3C50      NG2S1       HGP1
   37    34    41    42	 9 ;      CG311     CG3C50      NG2S1      CG2O1
   37    34    41    45	 9 ;      CG311     CG3C50      NG2S1       HGP1
   35    34    41    42	 9 ;     CG2R53     CG3C50      NG2S1      CG2O1
   35    34    41    45	 9 ;     CG2R53     CG3C50      NG2S1       HGP1
   33    34    37    39	 9 ;     CG3C52     CG3C50      CG311      CG321
   33    34    37    38	 9 ;     CG3C52     CG3C50      CG311      CG331
   33    34    37    75	 9 ;     CG3C52     CG3C50      CG311       HGA1
   41    34    37    39	 9 ;      NG2S1     CG3C50      CG311      CG321
   41    34    37    38	 9 ;      NG2S1     CG3C50      CG311      CG331
   41    34    37    75	 9 ;      NG2S1     CG3C50      CG311       HGA1
   35    34    37    39	 9 ;     CG2R53     CG3C50      CG311      CG321
   35    34    37    38	 9 ;     CG2R53     CG3C50      CG311      CG331
   35    34    37    75	 9 ;     CG2R53     CG3C50      CG311       HGA1
   33    34    35    31	 9 ;     CG3C52     CG3C50     CG2R53     NG2R53
   33    34    35    36	 9 ;     CG3C52     CG3C50     CG2R53      OG2D1
   41    34    35    31	 9 ;      NG2S1     CG3C50     CG2R53     NG2R53
   41    34    35    36	 9 ;      NG2S1     CG3C50     CG2R53      OG2D1
   37    34    35    31	 9 ;      CG311     CG3C50     CG2R53     NG2R53
   37    34    35    36	 9 ;      CG311     CG3C50     CG2R53      OG2D1
   34    37    39    40	 9 ;     CG3C50      CG311      CG321      CG331
   34    37    39    79	 9 ;     CG3C50      CG311      CG321       HGA2
   34    37    39    80	 9 ;     CG3C50      CG311      CG321       HGA2
   38    37    39    40	 9 ;      CG331      CG311      CG321      CG331
   38    37    39    79	 9 ;      CG331      CG311      CG321       HGA2
   38    37    39    80	 9 ;      CG331      CG311      CG321       HGA2
   75    37    39    40	 9 ;       HGA1      CG311      CG321      CG331
   75    37    39    79	 9 ;       HGA1      CG311      CG321       HGA2
   75    37    39    80	 9 ;       HGA1      CG311      CG321       HGA2
   34    37    38    76	 9 ;     CG3C50      CG311      CG331       HGA3
   34    37    38    77	 9 ;     CG3C50      CG311      CG331       HGA3
   34    37    38    78	 9 ;     CG3C50      CG311      CG331       HGA3
   39    37    38    76	 9 ;      CG321      CG311      CG331       HGA3
   39    37    38    77	 9 ;      CG321      CG311      CG331       HGA3
   39    37    38    78	 9 ;      CG321      CG311      CG331       HGA3
   75    37    38    76	 9 ;       HGA1      CG311      CG331       HGA3
   75    37    38    77	 9 ;       HGA1      CG311      CG331       HGA3
   75    37    38    78	 9 ;       HGA1      CG311      CG331       HGA3
   37    39    40    81	 9 ;      CG311      CG321      CG331       HGA3
   37    39    40    82	 9 ;      CG311      CG321      CG331       HGA3
   37    39    40    83	 9 ;      CG311      CG321      CG331       HGA3
   79    39    40    81	 9 ;       HGA2      CG321      CG331       HGA3
   79    39    40    82	 9 ;       HGA2      CG321      CG331       HGA3
   79    39    40    83	 9 ;       HGA2      CG321      CG331       HGA3
   80    39    40    81	 9 ;       HGA2      CG321      CG331       HGA3
   80    39    40    82	 9 ;       HGA2      CG321      CG331       HGA3
   80    39    40    83	 9 ;       HGA2      CG321      CG331       HGA3
   34    41    42    43	 9 ;     CG3C50      NG2S1      CG2O1      OG2D1
   34    41    42    44	 9 ;     CG3C50      NG2S1      CG2O1      CG331
   45    41    42    43	 9 ;       HGP1      NG2S1      CG2O1      OG2D1
   45    41    42    44	 9 ;       HGP1      NG2S1      CG2O1      CG331
   43    42    44    84	 9 ;      OG2D1      CG2O1      CG331       HGA3
   43    42    44    85	 9 ;      OG2D1      CG2O1      CG331       HGA3
   43    42    44    86	 9 ;      OG2D1      CG2O1      CG331       HGA3
   41    42    44    84	 9 ;      NG2S1      CG2O1      CG331       HGA3
   41    42    44    85	 9 ;      NG2S1      CG2O1      CG331       HGA3
   41    42    44    86	 9 ;      NG2S1      CG2O1      CG331       HGA3
   30    46    47    48	 9 ;      CG311      CG321      CG321     CG2R61
   30    46    47    89	 9 ;      CG311      CG321      CG321       HGA2
   30    46    47    90	 9 ;      CG311      CG321      CG321       HGA2
   87    46    47    48	 9 ;       HGA2      CG321      CG321     CG2R61
   87    46    47    89	 9 ;       HGA2      CG321      CG321       HGA2
   87    46    47    90	 9 ;       HGA2      CG321      CG321       HGA2
   88    46    47    48	 9 ;       HGA2      CG321      CG321     CG2R61
   88    46    47    89	 9 ;       HGA2      CG321      CG321       HGA2
   88    46    47    90	 9 ;       HGA2      CG321      CG321       HGA2
   46    47    48    53	 9 ;      CG321      CG321     CG2R61     CG2R61
   46    47    48    49	 9 ;      CG321      CG321     CG2R61     CG2R61
   89    47    48    53	 9 ;       HGA2      CG321     CG2R61     CG2R61
   89    47    48    49	 9 ;       HGA2      CG321     CG2R61     CG2R61
   90    47    48    53	 9 ;       HGA2      CG321     CG2R61     CG2R61
   90    47    48    49	 9 ;       HGA2      CG321     CG2R61     CG2R61
   47    48    53    52	 9 ;      CG321     CG2R61     CG2R61     CG2R61
   47    48    53    95	 9 ;      CG321     CG2R61     CG2R61      HGR61
   49    48    53    52	 9 ;     CG2R61     CG2R61     CG2R61     CG2R61
   49    48    53    95	 9 ;     CG2R61     CG2R61     CG2R61      HGR61
   53    48    49    50	 9 ;     CG2R61     CG2R61     CG2R61     CG2R61
   53    48    49    91	 9 ;     CG2R61     CG2R61     CG2R61      HGR61
   47    48    49    50	 9 ;      CG321     CG2R61     CG2R61     CG2R61
   47    48    49    91	 9 ;      CG321     CG2R61     CG2R61      HGR61
   48    49    50    51	 9 ;     CG2R61     CG2R61     CG2R61     CG2R61
   48    49    50    92	 9 ;     CG2R61     CG2R61     CG2R61      HGR61
   91    49    50    51	 9 ;      HGR61     CG2R61     CG2R61     CG2R61
   91    49    50    92	 9 ;      HGR61     CG2R61     CG2R61      HGR61
   49    50    51    52	 9 ;     CG2R61     CG2R61     CG2R61     CG2R61
   49    50    51    93	 9 ;     CG2R61     CG2R61     CG2R61      HGR61
   92    50    51    52	 9 ;      HGR61     CG2R61     CG2R61     CG2R61
   92    50    51    93	 9 ;      HGR61     CG2R61     CG2R61      HGR61
   50    51    52    53	 9 ;     CG2R61     CG2R61     CG2R61     CG2R61
   50    51    52    94	 9 ;     CG2R61     CG2R61     CG2R61      HGR61
   93    51    52    53	 9 ;      HGR61     CG2R61     CG2R61     CG2R61
   93    51    52    94	 9 ;      HGR61     CG2R61     CG2R61      HGR61
   51    52    53    48	 9 ;     CG2R61     CG2R61     CG2R61     CG2R61
   51    52    53    95	 9 ;     CG2R61     CG2R61     CG2R61      HGR61
   94    52    53    48	 9 ;      HGR61     CG2R61     CG2R61     CG2R61
   94    52    53    95	 9 ;      HGR61     CG2R61     CG2R61      HGR61

[ dihedrals ]
;	ai	  aj	ak	  al funct			  c0			c1			  c2			c3
    2    30     1     3	 2
   35    34    31    36	 2
   42    44    41    43	 2

