GROningen MAchine for Chemical Simulation
   95
    1LIG     N1    1  -1.567   0.361  -1.566
    1LIG     C1    2  -1.480   0.265  -1.614
    1LIG     O1    3  -1.512   0.187  -1.703
    1LIG     H1    4  -1.541   0.384  -1.470
    1LIG     C2    5  -1.710   0.355  -1.587
    1LIG     C3    6  -1.777   0.408  -1.457
    1LIG     C4    7  -1.921   0.381  -1.430
    1LIG     C5    8  -2.012   0.490  -1.430
    1LIG     C6    9  -2.146   0.464  -1.406
    1LIG     F1   10  -2.232   0.566  -1.405
    1LIG     C7   11  -2.192   0.336  -1.378
    1LIG     C8   12  -2.100   0.230  -1.383
    1LIG     C9   13  -1.966   0.252  -1.411
    1LIG     F2   14  -2.142   0.105  -1.358
    1LIG    C10   15  -1.768   0.419  -1.726
    1LIG     O2   16  -1.688   0.398  -1.843
    1LIG     H2   17  -1.746   0.378  -1.920
    1LIG    C11   18  -1.847   0.564  -1.747
    1LIG     N2   19  -1.936   0.682  -1.816
    1LIG    C12   20  -1.857   0.811  -1.875
    1LIG     H3   21  -2.004   0.649  -1.885
    1LIG     H4   22  -1.990   0.723  -1.739
    1LIG    C13   23  -1.740   0.834  -1.783
    1LIG    C14   24  -1.685   0.715  -1.740
    1LIG    C15   25  -1.695   0.950  -1.727
    1LIG    C16   26  -1.724   0.598  -1.826
    1LIG    C17   27  -1.615   0.702  -1.621
    1LIG    C18   28  -1.586   0.818  -1.553
    1LIG    C19   29  -1.617   0.942  -1.610
    1LIG    C20   30  -1.343   0.268  -1.543
    1LIG     N3   31  -1.253   0.364  -1.608
    1LIG    C21   32  -1.156   0.328  -1.709
    1LIG    C22   33  -1.073   0.453  -1.730
    1LIG    C23   34  -1.161   0.574  -1.691
    1LIG    C24   35  -1.256   0.504  -1.588
    1LIG     O3   36  -1.321   0.558  -1.502
    1LIG    C25   37  -1.242   0.638  -1.811
    1LIG    C26   38  -1.363   0.555  -1.861
    1LIG    C27   39  -1.294   0.784  -1.791
    1LIG    C28   40  -1.376   0.845  -1.904
    1LIG     N4   41  -1.073   0.673  -1.623
    1LIG    C29   42  -0.956   0.718  -1.681
    1LIG     O4   43  -0.920   0.685  -1.793
    1LIG    C30   44  -0.873   0.810  -1.596
    1LIG     H5   45  -1.100   0.707  -1.532
    1LIG    C31   46  -1.365   0.290  -1.393
    1LIG    C32   47  -1.234   0.275  -1.312
    1LIG    C33   48  -1.175   0.137  -1.328
    1LIG    C34   49  -1.248   0.024  -1.289
    1LIG    C35   50  -1.191  -0.103  -1.298
    1LIG    C36   51  -1.061  -0.118  -1.346
    1LIG    C37   52  -0.988  -0.006  -1.385
    1LIG    C38   53  -1.044   0.121  -1.377
    1LIG     HC   54  -1.735   0.249  -1.591
    1LIG    HC2   55  -1.721   0.366  -1.373
    1LIG    HC3   56  -1.763   0.516  -1.455
    1LIG    HC1   57  -1.977   0.590  -1.449
    1LIG    HC4   58  -2.296   0.318  -1.355
    1LIG    HC5   59  -1.897   0.169  -1.418
    1LIG    HC6   60  -1.849   0.350  -1.746
    1LIG    HC7   61  -1.822   0.613  -1.653
    1LIG    HC8   62  -1.922   0.898  -1.875
    1LIG    HC9   63  -1.822   0.790  -1.976
    1LIG   HC10   64  -1.718   1.046  -1.772
    1LIG   HC11   65  -1.746   0.626  -1.929
    1LIG   HC12   66  -1.650   0.517  -1.821
    1LIG   HC13   67  -1.586   0.606  -1.582
    1LIG   HC14   68  -1.538   0.814  -1.456
    1LIG   HC15   69  -1.582   1.033  -1.563
    1LIG   HC16   70  -1.299   0.169  -1.555
    1LIG   HC17   71  -1.094   0.246  -1.674
    1LIG   HC18   72  -1.207   0.300  -1.801
    1LIG   HC19   73  -1.044   0.461  -1.835
    1LIG   HC20   74  -0.985   0.449  -1.667
    1LIG   HC21   75  -1.173   0.642  -1.894
    1LIG   HC22   76  -1.346   0.450  -1.839
    1LIG   HC23   77  -1.454   0.589  -1.811
    1LIG   HC24   78  -1.374   0.569  -1.969
    1LIG   HC25   79  -1.207   0.848  -1.775
    1LIG   HC26   80  -1.355   0.786  -1.701
    1LIG   HC27   81  -1.366   0.954  -1.901
    1LIG   HC28   82  -1.339   0.808  -2.000
    1LIG   HC29   83  -1.480   0.818  -1.892
    1LIG   HC30   84  -0.784   0.840  -1.651
    1LIG   HC31   85  -0.844   0.758  -1.505
    1LIG   HC32   86  -0.931   0.899  -1.570
    1LIG   HC33   87  -1.404   0.390  -1.378
    1LIG   HC34   88  -1.437   0.217  -1.356
    1LIG   HC35   89  -1.256   0.292  -1.207
    1LIG   HC36   90  -1.162   0.350  -1.346
    1LIG   HC37   91  -1.349   0.035  -1.253
    1LIG   HC38   92  -1.248  -0.190  -1.268
    1LIG   HC39   93  -1.016  -0.216  -1.352
    1LIG   HC40   94  -0.887  -0.018  -1.423
    1LIG   HC41   95  -0.987   0.207  -1.408
   0.00000   0.00000   0.00000
