Getting the Right Output Means no Artefacts in Calculating Stuff
   54
    1LIG     CA    1  -1.627   0.344  -1.653
    1LIG     N1    2  -1.504   0.276  -1.599
    1LIG     C1    3  -1.384   0.323  -1.569
    1LIG     N2    4  -1.356   0.451  -1.583
    1LIG     C2    5  -1.279   0.232  -1.515
    1LIG     C3    6  -1.229   0.511  -1.537
    1LIG     H1    7  -1.424   0.508  -1.629
    1LIG     C4    8  -1.177   0.435  -1.413
    1LIG     C5    9  -1.255   0.657  -1.498
    1LIG     C6   10  -1.132   0.508  -1.656
    1LIG     C7   11  -1.178   0.287  -1.434
    1LIG     C8   12  -1.081   0.205  -1.374
    1LIG     C9   13  -1.079   0.069  -1.401
    1LIG     CL   14  -0.959  -0.031  -1.328
    1LIG    C10   15  -1.172   0.014  -1.490
    1LIG    C11   16  -1.270   0.095  -1.548
    1LIG     H2   17  -1.533   0.181  -1.569
    1LIG    C12   18  -1.737   0.247  -1.696
    1LIG    C13   19  -1.859   0.302  -1.768
    1LIG    C14   20  -1.861   0.337  -1.901
    1LIG      S   21  -2.011   0.399  -1.954
    1LIG    C15   22  -2.077   0.381  -1.798
    1LIG    C16   23  -1.989   0.325  -1.709
    1LIG    C17   24  -2.024   0.301  -1.569
    1LIG    C18   25  -2.050   0.178  -1.506
    1LIG     N3   26  -2.064   0.191  -1.373
    1LIG     N4   27  -2.056   0.323  -1.354
    1LIG     HN   28  -2.077   0.118  -1.303
    1LIG    C19   29  -2.042   0.395  -1.470
    1LIG     H3   30  -2.060   0.359  -1.259
    1LIG    C20   31  -1.670   0.443  -1.541
    1LIG      O   32  -1.712   0.394  -1.434
    1LIG    OXT   33  -1.654   0.565  -1.579
    1LIG     HC   34  -1.598   0.402  -1.741
    1LIG    HC2   35  -1.075   0.467  -1.392
    1LIG    HC3   36  -1.240   0.460  -1.327
    1LIG    HC1   37  -1.291   0.712  -1.585
    1LIG    HC4   38  -1.162   0.702  -1.463
    1LIG    HC5   39  -1.329   0.661  -1.418
    1LIG    HC6   40  -1.113   0.404  -1.684
    1LIG    HC7   41  -1.176   0.561  -1.740
    1LIG    HC8   42  -1.038   0.556  -1.628
    1LIG    HC9   43  -1.007   0.248  -1.308
    1LIG   HC10   44  -1.168  -0.091  -1.514
    1LIG   HC11   45  -1.340   0.053  -1.618
    1LIG   HC12   46  -1.773   0.197  -1.606
    1LIG   HC13   47  -1.692   0.171  -1.760
    1LIG   HC14   48  -1.776   0.327  -1.966
    1LIG   HC15   49  -2.178   0.411  -1.773
    1LIG   HC16   50  -2.058   0.084  -1.558
    1LIG   HC17   51  -2.045   0.502  -1.481
    1LIG    H23   52  -1.350   0.303  -1.671
    1LIG    H24   53  -1.943   0.162  -1.493
    1LIG    LP1   54  -0.845  -0.126  -1.259
   0.00000   0.00000   0.00000
