GRoups of Organic Molecules in ACtion for Science
   77
    1LIG     C1    1  -1.684   0.668  -1.424
    1LIG     C2    2  -1.837   0.642  -1.423
    1LIG     C3    3  -1.898   0.566  -1.539
    1LIG     C4    4  -1.930   0.623  -1.663
    1LIG     C5    5  -1.974   0.543  -1.769
    1LIG     F1    6  -2.007   0.602  -1.885
    1LIG     C6    7  -1.984   0.406  -1.757
    1LIG     C7    8  -1.952   0.348  -1.635
    1LIG     F2    9  -1.959   0.215  -1.621
    1LIG     C8   10  -1.910   0.426  -1.527
    1LIG     C9   11  -1.650   0.821  -1.428
    1LIG     O1   12  -1.519   0.850  -1.378
    1LIG     H1   13  -1.499   0.945  -1.395
    1LIG    C10   14  -1.655   0.875  -1.572
    1LIG     N1   15  -1.537   0.825  -1.651
    1LIG     H2   16  -1.453   0.880  -1.631
    1LIG     H3   17  -1.515   0.730  -1.617
    1LIG    C11   18  -1.560   0.822  -1.798
    1LIG    C12   19  -1.602   0.686  -1.845
    1LIG    C13   20  -1.646   0.668  -1.977
    1LIG    C14   21  -1.675   0.540  -2.025
    1LIG    C15   22  -1.662   0.430  -1.940
    1LIG    C16   23  -1.623   0.447  -1.808
    1LIG    C17   24  -1.593   0.575  -1.760
    1LIG     O2   25  -1.715   0.510  -2.153
    1LIG    C18   26  -1.666   0.389  -2.209
    1LIG     N2   27  -1.620   0.604  -1.308
    1LIG    C19   28  -1.531   0.500  -1.293
    1LIG     O3   29  -1.483   0.489  -1.181
    1LIG     H4   30  -1.648   0.638  -1.217
    1LIG    C20   31  -1.493   0.400  -1.399
    1LIG    C21   32  -1.374   0.402  -1.471
    1LIG    C22   33  -1.355   0.321  -1.584
    1LIG    C23   34  -1.451   0.225  -1.615
    1LIG    C24   35  -1.569   0.217  -1.542
    1LIG    C25   36  -1.591   0.306  -1.436
    1LIG     N3   37  -1.240   0.345  -1.666
    1LIG      S   38  -1.109   0.240  -1.662
    1LIG     O4   39  -1.098   0.185  -1.528
    1LIG     O5   40  -0.994   0.303  -1.723
    1LIG    C26   41  -1.165   0.111  -1.771
    1LIG    C27   42  -1.246   0.447  -1.768
    1LIG    C28   43  -1.214   0.579  -1.738
    1LIG    C29   44  -1.217   0.677  -1.837
    1LIG    C30   45  -1.256   0.644  -1.966
    1LIG    C31   46  -1.293   0.513  -1.996
    1LIG    C32   47  -1.288   0.414  -1.897
    1LIG     H5   48  -1.645   0.624  -1.514
    1LIG     H6   49  -1.859   0.586  -1.334
    1LIG     H7   50  -1.880   0.739  -1.430
    1LIG     H8   51  -1.921   0.725  -1.676
    1LIG     H9   52  -2.015   0.348  -1.837
    1LIG    H10   53  -1.888   0.381  -1.437
    1LIG    H11   54  -1.723   0.867  -1.366
    1LIG    H12   55  -1.745   0.842  -1.619
    1LIG    H13   56  -1.653   0.982  -1.570
    1LIG    H14   57  -1.637   0.893  -1.823
    1LIG    H15   58  -1.468   0.848  -1.847
    1LIG    H16   59  -1.658   0.749  -2.039
    1LIG    H17   60  -1.681   0.335  -1.976
    1LIG    H18   61  -1.616   0.366  -1.745
    1LIG    H19   62  -1.564   0.588  -1.661
    1LIG    H20   63  -1.704   0.378  -2.309
    1LIG    H21   64  -1.698   0.306  -2.149
    1LIG    H22   65  -1.559   0.391  -2.213
    1LIG    H23   66  -1.298   0.464  -1.441
    1LIG    H24   67  -1.434   0.159  -1.693
    1LIG    H25   68  -1.640   0.146  -1.565
    1LIG    H26   69  -1.681   0.303  -1.385
    1LIG    H27   70  -1.173   0.149  -1.871
    1LIG    H28   71  -1.261   0.075  -1.738
    1LIG    H29   72  -1.095   0.030  -1.770
    1LIG    H30   73  -1.188   0.605  -1.642
    1LIG    H31   74  -1.190   0.774  -1.815
    1LIG    H32   75  -1.259   0.716  -2.040
    1LIG    H33   76  -1.324   0.488  -2.092
    1LIG    H34   77  -1.314   0.317  -1.920
   0.00000   0.00000   0.00000
