; Created by cgenff_charmm2gmx.py

[ moleculetype ]
; Name			   nrexcl
LIG				 3

[ atoms ]
;	 nr		  type	resnr residue  atom   cgnr	   charge		mass  typeB    chargeB		massB
; residue	 1 LIG rtp LIG q	qsum
     1      CG311      1    LIG     C1      1      0.010     12.011   ;
     2      CG321      1    LIG     C2      2     -0.153     12.011   ;
     3     CG2R61      1    LIG     C3      3      0.057     12.011   ;
     4     CG2R61      1    LIG     C4      4     -0.218     12.011   ;
     5     CG2R66      1    LIG     C5      5      0.261     12.011   ;
     6       FGR1      1    LIG     F1      6     -0.210     18.998   ;
     7     CG2R61      1    LIG     C6      7     -0.240     12.011   ;
     8     CG2R66      1    LIG     C7      8      0.261     12.011   ;
     9       FGR1      1    LIG     F2      9     -0.210     18.998   ;
    10     CG2R61      1    LIG     C8     10     -0.218     12.011   ;
    11      CG311      1    LIG     C9     11      0.094     12.011   ;
    12      OG311      1    LIG     O1     12     -0.625     15.999   ;
    13       HGP1      1    LIG     H1     13      0.415      1.008   ;
    14      CG324      1    LIG    C10     14      0.178     12.011   ;
    15      NG3P2      1    LIG     N1     15     -0.444     14.007   ;
    16       HGP2      1    LIG     H2     16      0.348      1.008   ;
    17       HGP2      1    LIG     H3     17      0.348      1.008   ;
    18      CG324      1    LIG    C11     18      0.171     12.011   ;
    19     CG2R61      1    LIG    C12     19      0.036     12.011   ;
    20     CG2R61      1    LIG    C13     20     -0.124     12.011   ;
    21     CG2R61      1    LIG    C14     21      0.216     12.011   ;
    22     CG2R61      1    LIG    C15     22     -0.121     12.011   ;
    23     CG2R61      1    LIG    C16     23     -0.108     12.011   ;
    24     CG2R61      1    LIG    C17     24     -0.119     12.011   ;
    25      OG301      1    LIG     O2     25     -0.383     15.999   ;
    26      CG331      1    LIG    C18     26     -0.094     12.011   ;
    27      NG2S1      1    LIG     N2     27     -0.226     14.007   ;
    28      CG2O1      1    LIG    C19     28      0.302     12.011   ;
    29      OG2D1      1    LIG     O3     29     -0.463     15.999   ;
    30       HGP1      1    LIG     H4     30      0.262      1.008   ;
    31     CG2R61      1    LIG    C20     31     -0.103     12.011   ;
    32     CG2R61      1    LIG    C21     32     -0.067     12.011   ;
    33     CG2R61      1    LIG    C22     33      0.151     12.011   ;
    34     CG2R61      1    LIG    C23     34     -0.123     12.011   ;
    35     CG2R61      1    LIG    C24     35     -0.110     12.011   ;
    36     CG2R61      1    LIG    C25     36     -0.060     12.011   ;
    37      NG301      1    LIG     N3     37     -0.231     14.007   ;
    38      SG3O2      1    LIG      S     38      0.466     32.060   ;
    39      OG2P1      1    LIG     O4     39     -0.412     15.999   ;
    40      OG2P1      1    LIG     O5     40     -0.412     15.999   ;
    41      CG331      1    LIG    C26     41      0.033     12.011   ;
    42     CG2R61      1    LIG    C27     42      0.149     12.011   ;
    43     CG2R61      1    LIG    C28     43     -0.123     12.011   ;
    44     CG2R61      1    LIG    C29     44     -0.112     12.011   ;
    45     CG2R61      1    LIG    C30     45     -0.116     12.011   ;
    46     CG2R61      1    LIG    C31     46     -0.112     12.011   ;
    47     CG2R61      1    LIG    C32     47     -0.123     12.011   ;
    48       HGA1      1    LIG     H5     48      0.090      1.008   ;
    49       HGA2      1    LIG     H6     49      0.090      1.008   ;
    50       HGA2      1    LIG     H7     50      0.090      1.008   ;
    51      HGR62      1    LIG     H8     51      0.174      1.008   ;
    52      HGR62      1    LIG     H9     52      0.186      1.008   ;
    53      HGR62      1    LIG    H10     53      0.174      1.008   ;
    54       HGA1      1    LIG    H11     54      0.090      1.008   ;
    55       HGA2      1    LIG    H12     55      0.090      1.008   ;
    56       HGA2      1    LIG    H13     56      0.090      1.008   ;
    57       HGA2      1    LIG    H14     57      0.090      1.008   ;
    58       HGA2      1    LIG    H15     58      0.090      1.008   ;
    59      HGR61      1    LIG    H16     59      0.116      1.008   ;
    60      HGR61      1    LIG    H17     60      0.116      1.008   ;
    61      HGR61      1    LIG    H18     61      0.116      1.008   ;
    62      HGR61      1    LIG    H19     62      0.116      1.008   ;
    63       HGA3      1    LIG    H20     63      0.090      1.008   ;
    64       HGA3      1    LIG    H21     64      0.090      1.008   ;
    65       HGA3      1    LIG    H22     65      0.090      1.008   ;
    66      HGR61      1    LIG    H23     66      0.116      1.008   ;
    67      HGR61      1    LIG    H24     67      0.116      1.008   ;
    68      HGR61      1    LIG    H25     68      0.116      1.008   ;
    69      HGR61      1    LIG    H26     69      0.116      1.008   ;
    70       HGA3      1    LIG    H27     70      0.090      1.008   ;
    71       HGA3      1    LIG    H28     71      0.090      1.008   ;
    72       HGA3      1    LIG    H29     72      0.090      1.008   ;
    73      HGR61      1    LIG    H30     73      0.116      1.008   ;
    74      HGR61      1    LIG    H31     74      0.116      1.008   ;
    75      HGR61      1    LIG    H32     75      0.116      1.008   ;
    76      HGR61      1    LIG    H33     76      0.116      1.008   ;
    77      HGR61      1    LIG    H34     77      0.116      1.008   ;

[ bonds ]
;	ai	  aj funct			  c0			c1			  c2			c3
    1    11	 1 ;       CG311      CG311
    1     2	 1 ;       CG311      CG321
    1    27	 1 ;       CG311      NG2S1
    1    48	 1 ;       CG311       HGA1
    2     3	 1 ;       CG321     CG2R61
    2    49	 1 ;       CG321       HGA2
    2    50	 1 ;       CG321       HGA2
    3     4	 1 ;      CG2R61     CG2R61
    3    10	 1 ;      CG2R61     CG2R61
    4     5	 1 ;      CG2R61     CG2R66
    4    51	 1 ;      CG2R61      HGR62
    5     6	 1 ;      CG2R66       FGR1
    5     7	 1 ;      CG2R66     CG2R61
    7     8	 1 ;      CG2R61     CG2R66
    7    52	 1 ;      CG2R61      HGR62
    8     9	 1 ;      CG2R66       FGR1
    8    10	 1 ;      CG2R66     CG2R61
   10    53	 1 ;      CG2R61      HGR62
   11    14	 1 ;       CG311      CG324
   11    12	 1 ;       CG311      OG311
   11    54	 1 ;       CG311       HGA1
   12    13	 1 ;       OG311       HGP1
   14    15	 1 ;       CG324      NG3P2
   14    55	 1 ;       CG324       HGA2
   14    56	 1 ;       CG324       HGA2
   15    18	 1 ;       NG3P2      CG324
   15    16	 1 ;       NG3P2       HGP2
   15    17	 1 ;       NG3P2       HGP2
   18    19	 1 ;       CG324     CG2R61
   18    57	 1 ;       CG324       HGA2
   18    58	 1 ;       CG324       HGA2
   19    20	 1 ;      CG2R61     CG2R61
   19    24	 1 ;      CG2R61     CG2R61
   20    21	 1 ;      CG2R61     CG2R61
   20    59	 1 ;      CG2R61      HGR61
   21    25	 1 ;      CG2R61      OG301
   21    22	 1 ;      CG2R61     CG2R61
   22    23	 1 ;      CG2R61     CG2R61
   22    60	 1 ;      CG2R61      HGR61
   23    24	 1 ;      CG2R61     CG2R61
   23    61	 1 ;      CG2R61      HGR61
   24    62	 1 ;      CG2R61      HGR61
   25    26	 1 ;       OG301      CG331
   26    63	 1 ;       CG331       HGA3
   26    64	 1 ;       CG331       HGA3
   26    65	 1 ;       CG331       HGA3
   27    28	 1 ;       NG2S1      CG2O1
   27    30	 1 ;       NG2S1       HGP1
   28    31	 1 ;       CG2O1     CG2R61
   28    29	 1 ;       CG2O1      OG2D1
   31    32	 1 ;      CG2R61     CG2R61
   31    36	 1 ;      CG2R61     CG2R61
   32    33	 1 ;      CG2R61     CG2R61
   32    66	 1 ;      CG2R61      HGR61
   33    37	 1 ;      CG2R61      NG301
   33    34	 1 ;      CG2R61     CG2R61
   34    35	 1 ;      CG2R61     CG2R61
   34    67	 1 ;      CG2R61      HGR61
   35    36	 1 ;      CG2R61     CG2R61
   35    68	 1 ;      CG2R61      HGR61
   36    69	 1 ;      CG2R61      HGR61
   37    42	 1 ;       NG301     CG2R61
   37    38	 1 ;       NG301      SG3O2
   38    41	 1 ;       SG3O2      CG331
   38    40	 1 ;       SG3O2      OG2P1
   38    39	 1 ;       SG3O2      OG2P1
   41    70	 1 ;       CG331       HGA3
   41    71	 1 ;       CG331       HGA3
   41    72	 1 ;       CG331       HGA3
   42    47	 1 ;      CG2R61     CG2R61
   42    43	 1 ;      CG2R61     CG2R61
   43    44	 1 ;      CG2R61     CG2R61
   43    73	 1 ;      CG2R61      HGR61
   44    45	 1 ;      CG2R61     CG2R61
   44    74	 1 ;      CG2R61      HGR61
   45    46	 1 ;      CG2R61     CG2R61
   45    75	 1 ;      CG2R61      HGR61
   46    47	 1 ;      CG2R61     CG2R61
   46    76	 1 ;      CG2R61      HGR61
   47    77	 1 ;      CG2R61      HGR61

[ pairs ]
;	ai	  aj funct			  c0			c1			  c2			c3
    1     4	 1
    1    10	 1
    1    15	 1
    1    55	 1
    1    56	 1
    1    13	 1
    1    31	 1
    1    29	 1
    2    14	 1
    2    12	 1
    2    54	 1
    2    28	 1
    2    30	 1
    2     5	 1
    2    51	 1
    2     8	 1
    2    53	 1
    3    11	 1
    3    27	 1
    3    48	 1
    3     6	 1
    3     7	 1
    3     9	 1
    4    49	 1
    4    50	 1
    4     8	 1
    4    53	 1
    4    52	 1
    5    10	 1
    5     9	 1
    6    51	 1
    6     8	 1
    6    52	 1
    7    51	 1
    7    53	 1
    9    52	 1
    9    53	 1
   10    49	 1
   10    50	 1
   10    51	 1
   10    52	 1
   11    49	 1
   11    50	 1
   11    28	 1
   11    30	 1
   11    18	 1
   11    16	 1
   11    17	 1
   12    27	 1
   12    48	 1
   12    15	 1
   12    55	 1
   12    56	 1
   13    14	 1
   13    54	 1
   14    27	 1
   14    48	 1
   14    19	 1
   14    57	 1
   14    58	 1
   15    54	 1
   15    20	 1
   15    24	 1
   16    55	 1
   16    56	 1
   16    19	 1
   16    57	 1
   16    58	 1
   17    55	 1
   17    56	 1
   17    19	 1
   17    57	 1
   17    58	 1
   18    55	 1
   18    56	 1
   18    21	 1
   18    59	 1
   18    23	 1
   18    62	 1
   19    25	 1
   19    22	 1
   19    61	 1
   20    57	 1
   20    58	 1
   20    23	 1
   20    62	 1
   20    26	 1
   20    60	 1
   21    24	 1
   21    61	 1
   21    63	 1
   21    64	 1
   21    65	 1
   22    59	 1
   22    26	 1
   22    62	 1
   23    25	 1
   24    57	 1
   24    58	 1
   24    59	 1
   24    60	 1
   25    59	 1
   25    60	 1
   27    54	 1
   27    49	 1
   27    50	 1
   27    32	 1
   27    36	 1
   28    48	 1
   28    33	 1
   28    66	 1
   28    35	 1
   28    69	 1
   29    30	 1
   29    32	 1
   29    36	 1
   30    48	 1
   30    31	 1
   31    37	 1
   31    34	 1
   31    68	 1
   32    35	 1
   32    69	 1
   32    42	 1
   32    38	 1
   32    67	 1
   33    36	 1
   33    68	 1
   33    47	 1
   33    43	 1
   33    41	 1
   33    40	 1
   33    39	 1
   34    66	 1
   34    42	 1
   34    38	 1
   34    69	 1
   35    37	 1
   36    66	 1
   36    67	 1
   37    66	 1
   37    67	 1
   37    70	 1
   37    71	 1
   37    72	 1
   37    46	 1
   37    77	 1
   37    44	 1
   37    73	 1
   38    47	 1
   38    43	 1
   39    42	 1
   39    70	 1
   39    71	 1
   39    72	 1
   40    42	 1
   40    70	 1
   40    71	 1
   40    72	 1
   41    42	 1
   42    45	 1
   42    74	 1
   42    76	 1
   43    46	 1
   43    77	 1
   43    75	 1
   44    47	 1
   44    76	 1
   45    73	 1
   45    77	 1
   46    74	 1
   47    73	 1
   47    75	 1
   48    54	 1
   48    49	 1
   48    50	 1
   54    55	 1
   54    56	 1
   60    61	 1
   61    62	 1
   67    68	 1
   68    69	 1
   73    74	 1
   74    75	 1
   75    76	 1
   76    77	 1

[ angles ]
;	ai	  aj	ak funct			c0			  c1			c2			  c3
   11     1     2	5 ;      CG311      CG311      CG321
   11     1    27	5 ;      CG311      CG311      NG2S1
   11     1    48	5 ;      CG311      CG311       HGA1
    2     1    27	5 ;      CG321      CG311      NG2S1
    2     1    48	5 ;      CG321      CG311       HGA1
   27     1    48	5 ;      NG2S1      CG311       HGA1
    3     2     1	5 ;     CG2R61      CG321      CG311
    3     2    49	5 ;     CG2R61      CG321       HGA2
    3     2    50	5 ;     CG2R61      CG321       HGA2
    1     2    49	5 ;      CG311      CG321       HGA2
    1     2    50	5 ;      CG311      CG321       HGA2
   49     2    50	5 ;       HGA2      CG321       HGA2
    4     3    10	5 ;     CG2R61     CG2R61     CG2R61
    4     3     2	5 ;     CG2R61     CG2R61      CG321
   10     3     2	5 ;     CG2R61     CG2R61      CG321
    5     4     3	5 ;     CG2R66     CG2R61     CG2R61
    5     4    51	5 ;     CG2R66     CG2R61      HGR62
    3     4    51	5 ;     CG2R61     CG2R61      HGR62
    6     5     7	5 ;       FGR1     CG2R66     CG2R61
    6     5     4	5 ;       FGR1     CG2R66     CG2R61
    7     5     4	5 ;     CG2R61     CG2R66     CG2R61
    5     7     8	5 ;     CG2R66     CG2R61     CG2R66
    5     7    52	5 ;     CG2R66     CG2R61      HGR62
    8     7    52	5 ;     CG2R66     CG2R61      HGR62
    7     8     9	5 ;     CG2R61     CG2R66       FGR1
    7     8    10	5 ;     CG2R61     CG2R66     CG2R61
    9     8    10	5 ;       FGR1     CG2R66     CG2R61
    8    10     3	5 ;     CG2R66     CG2R61     CG2R61
    8    10    53	5 ;     CG2R66     CG2R61      HGR62
    3    10    53	5 ;     CG2R61     CG2R61      HGR62
   14    11     1	5 ;      CG324      CG311      CG311
   14    11    12	5 ;      CG324      CG311      OG311
   14    11    54	5 ;      CG324      CG311       HGA1
    1    11    12	5 ;      CG311      CG311      OG311
    1    11    54	5 ;      CG311      CG311       HGA1
   12    11    54	5 ;      OG311      CG311       HGA1
   11    12    13	5 ;      CG311      OG311       HGP1
   15    14    11	5 ;      NG3P2      CG324      CG311
   15    14    55	5 ;      NG3P2      CG324       HGA2
   15    14    56	5 ;      NG3P2      CG324       HGA2
   11    14    55	5 ;      CG311      CG324       HGA2
   11    14    56	5 ;      CG311      CG324       HGA2
   55    14    56	5 ;       HGA2      CG324       HGA2
   18    15    16	5 ;      CG324      NG3P2       HGP2
   18    15    17	5 ;      CG324      NG3P2       HGP2
   18    15    14	5 ;      CG324      NG3P2      CG324
   16    15    17	5 ;       HGP2      NG3P2       HGP2
   16    15    14	5 ;       HGP2      NG3P2      CG324
   17    15    14	5 ;       HGP2      NG3P2      CG324
   19    18    15	5 ;     CG2R61      CG324      NG3P2
   19    18    57	5 ;     CG2R61      CG324       HGA2
   19    18    58	5 ;     CG2R61      CG324       HGA2
   15    18    57	5 ;      NG3P2      CG324       HGA2
   15    18    58	5 ;      NG3P2      CG324       HGA2
   57    18    58	5 ;       HGA2      CG324       HGA2
   20    19    18	5 ;     CG2R61     CG2R61      CG324
   20    19    24	5 ;     CG2R61     CG2R61     CG2R61
   18    19    24	5 ;      CG324     CG2R61     CG2R61
   21    20    19	5 ;     CG2R61     CG2R61     CG2R61
   21    20    59	5 ;     CG2R61     CG2R61      HGR61
   19    20    59	5 ;     CG2R61     CG2R61      HGR61
   25    21    20	5 ;      OG301     CG2R61     CG2R61
   25    21    22	5 ;      OG301     CG2R61     CG2R61
   20    21    22	5 ;     CG2R61     CG2R61     CG2R61
   21    22    23	5 ;     CG2R61     CG2R61     CG2R61
   21    22    60	5 ;     CG2R61     CG2R61      HGR61
   23    22    60	5 ;     CG2R61     CG2R61      HGR61
   22    23    24	5 ;     CG2R61     CG2R61     CG2R61
   22    23    61	5 ;     CG2R61     CG2R61      HGR61
   24    23    61	5 ;     CG2R61     CG2R61      HGR61
   19    24    23	5 ;     CG2R61     CG2R61     CG2R61
   19    24    62	5 ;     CG2R61     CG2R61      HGR61
   23    24    62	5 ;     CG2R61     CG2R61      HGR61
   26    25    21	5 ;      CG331      OG301     CG2R61
   25    26    63	5 ;      OG301      CG331       HGA3
   25    26    64	5 ;      OG301      CG331       HGA3
   25    26    65	5 ;      OG301      CG331       HGA3
   63    26    64	5 ;       HGA3      CG331       HGA3
   63    26    65	5 ;       HGA3      CG331       HGA3
   64    26    65	5 ;       HGA3      CG331       HGA3
    1    27    28	5 ;      CG311      NG2S1      CG2O1
    1    27    30	5 ;      CG311      NG2S1       HGP1
   28    27    30	5 ;      CG2O1      NG2S1       HGP1
   31    28    27	5 ;     CG2R61      CG2O1      NG2S1
   31    28    29	5 ;     CG2R61      CG2O1      OG2D1
   27    28    29	5 ;      NG2S1      CG2O1      OG2D1
   32    31    36	5 ;     CG2R61     CG2R61     CG2R61
   32    31    28	5 ;     CG2R61     CG2R61      CG2O1
   36    31    28	5 ;     CG2R61     CG2R61      CG2O1
   33    32    31	5 ;     CG2R61     CG2R61     CG2R61
   33    32    66	5 ;     CG2R61     CG2R61      HGR61
   31    32    66	5 ;     CG2R61     CG2R61      HGR61
   37    33    34	5 ;      NG301     CG2R61     CG2R61
   37    33    32	5 ;      NG301     CG2R61     CG2R61
   34    33    32	5 ;     CG2R61     CG2R61     CG2R61
   33    34    35	5 ;     CG2R61     CG2R61     CG2R61
   33    34    67	5 ;     CG2R61     CG2R61      HGR61
   35    34    67	5 ;     CG2R61     CG2R61      HGR61
   34    35    36	5 ;     CG2R61     CG2R61     CG2R61
   34    35    68	5 ;     CG2R61     CG2R61      HGR61
   36    35    68	5 ;     CG2R61     CG2R61      HGR61
   35    36    31	5 ;     CG2R61     CG2R61     CG2R61
   35    36    69	5 ;     CG2R61     CG2R61      HGR61
   31    36    69	5 ;     CG2R61     CG2R61      HGR61
   42    37    38	5 ;     CG2R61      NG301      SG3O2
   42    37    33	5 ;     CG2R61      NG301     CG2R61
   38    37    33	5 ;      SG3O2      NG301     CG2R61
   41    38    40	5 ;      CG331      SG3O2      OG2P1
   41    38    37	5 ;      CG331      SG3O2      NG301
   41    38    39	5 ;      CG331      SG3O2      OG2P1
   40    38    37	5 ;      OG2P1      SG3O2      NG301
   40    38    39	5 ;      OG2P1      SG3O2      OG2P1
   37    38    39	5 ;      NG301      SG3O2      OG2P1
   38    41    70	5 ;      SG3O2      CG331       HGA3
   38    41    71	5 ;      SG3O2      CG331       HGA3
   38    41    72	5 ;      SG3O2      CG331       HGA3
   70    41    71	5 ;       HGA3      CG331       HGA3
   70    41    72	5 ;       HGA3      CG331       HGA3
   71    41    72	5 ;       HGA3      CG331       HGA3
   47    42    43	5 ;     CG2R61     CG2R61     CG2R61
   47    42    37	5 ;     CG2R61     CG2R61      NG301
   43    42    37	5 ;     CG2R61     CG2R61      NG301
   44    43    42	5 ;     CG2R61     CG2R61     CG2R61
   44    43    73	5 ;     CG2R61     CG2R61      HGR61
   42    43    73	5 ;     CG2R61     CG2R61      HGR61
   45    44    43	5 ;     CG2R61     CG2R61     CG2R61
   45    44    74	5 ;     CG2R61     CG2R61      HGR61
   43    44    74	5 ;     CG2R61     CG2R61      HGR61
   46    45    44	5 ;     CG2R61     CG2R61     CG2R61
   46    45    75	5 ;     CG2R61     CG2R61      HGR61
   44    45    75	5 ;     CG2R61     CG2R61      HGR61
   45    46    47	5 ;     CG2R61     CG2R61     CG2R61
   45    46    76	5 ;     CG2R61     CG2R61      HGR61
   47    46    76	5 ;     CG2R61     CG2R61      HGR61
   46    47    42	5 ;     CG2R61     CG2R61     CG2R61
   46    47    77	5 ;     CG2R61     CG2R61      HGR61
   42    47    77	5 ;     CG2R61     CG2R61      HGR61

[ dihedrals ]
;	ai	  aj	ak	  al funct			  c0			c1			  c2			c3			  c4			c5
    2     1    11    14	 9 ;      CG321      CG311      CG311      CG324
    2     1    11    12	 9 ;      CG321      CG311      CG311      OG311
    2     1    11    54	 9 ;      CG321      CG311      CG311       HGA1
   27     1    11    14	 9 ;      NG2S1      CG311      CG311      CG324
   27     1    11    12	 9 ;      NG2S1      CG311      CG311      OG311
   27     1    11    54	 9 ;      NG2S1      CG311      CG311       HGA1
   48     1    11    14	 9 ;       HGA1      CG311      CG311      CG324
   48     1    11    12	 9 ;       HGA1      CG311      CG311      OG311
   48     1    11    54	 9 ;       HGA1      CG311      CG311       HGA1
   11     1     2     3	 9 ;      CG311      CG311      CG321     CG2R61
   11     1     2    49	 9 ;      CG311      CG311      CG321       HGA2
   11     1     2    50	 9 ;      CG311      CG311      CG321       HGA2
   27     1     2     3	 9 ;      NG2S1      CG311      CG321     CG2R61
   27     1     2    49	 9 ;      NG2S1      CG311      CG321       HGA2
   27     1     2    50	 9 ;      NG2S1      CG311      CG321       HGA2
   48     1     2     3	 9 ;       HGA1      CG311      CG321     CG2R61
   48     1     2    49	 9 ;       HGA1      CG311      CG321       HGA2
   48     1     2    50	 9 ;       HGA1      CG311      CG321       HGA2
   11     1    27    28	 9 ;      CG311      CG311      NG2S1      CG2O1
   11     1    27    30	 9 ;      CG311      CG311      NG2S1       HGP1
    2     1    27    28	 9 ;      CG321      CG311      NG2S1      CG2O1
    2     1    27    30	 9 ;      CG321      CG311      NG2S1       HGP1
   48     1    27    28	 9 ;       HGA1      CG311      NG2S1      CG2O1
   48     1    27    30	 9 ;       HGA1      CG311      NG2S1       HGP1
    1     2     3     4	 9 ;      CG311      CG321     CG2R61     CG2R61
    1     2     3    10	 9 ;      CG311      CG321     CG2R61     CG2R61
   49     2     3     4	 9 ;       HGA2      CG321     CG2R61     CG2R61
   49     2     3    10	 9 ;       HGA2      CG321     CG2R61     CG2R61
   50     2     3     4	 9 ;       HGA2      CG321     CG2R61     CG2R61
   50     2     3    10	 9 ;       HGA2      CG321     CG2R61     CG2R61
   10     3     4     5	 9 ;     CG2R61     CG2R61     CG2R61     CG2R66
   10     3     4    51	 9 ;     CG2R61     CG2R61     CG2R61      HGR62
    2     3     4     5	 9 ;      CG321     CG2R61     CG2R61     CG2R66
    2     3     4    51	 9 ;      CG321     CG2R61     CG2R61      HGR62
    4     3    10     8	 9 ;     CG2R61     CG2R61     CG2R61     CG2R66
    4     3    10    53	 9 ;     CG2R61     CG2R61     CG2R61      HGR62
    2     3    10     8	 9 ;      CG321     CG2R61     CG2R61     CG2R66
    2     3    10    53	 9 ;      CG321     CG2R61     CG2R61      HGR62
    3     4     5     6	 9 ;     CG2R61     CG2R61     CG2R66       FGR1
    3     4     5     7	 9 ;     CG2R61     CG2R61     CG2R66     CG2R61
   51     4     5     6	 9 ;      HGR62     CG2R61     CG2R66       FGR1
   51     4     5     7	 9 ;      HGR62     CG2R61     CG2R66     CG2R61
    6     5     7     8	 9 ;       FGR1     CG2R66     CG2R61     CG2R66
    6     5     7    52	 9 ;       FGR1     CG2R66     CG2R61      HGR62
    4     5     7     8	 9 ;     CG2R61     CG2R66     CG2R61     CG2R66
    4     5     7    52	 9 ;     CG2R61     CG2R66     CG2R61      HGR62
    5     7     8     9	 9 ;     CG2R66     CG2R61     CG2R66       FGR1
    5     7     8    10	 9 ;     CG2R66     CG2R61     CG2R66     CG2R61
   52     7     8     9	 9 ;      HGR62     CG2R61     CG2R66       FGR1
   52     7     8    10	 9 ;      HGR62     CG2R61     CG2R66     CG2R61
    7     8    10     3	 9 ;     CG2R61     CG2R66     CG2R61     CG2R61
    7     8    10    53	 9 ;     CG2R61     CG2R66     CG2R61      HGR62
    9     8    10     3	 9 ;       FGR1     CG2R66     CG2R61     CG2R61
    9     8    10    53	 9 ;       FGR1     CG2R66     CG2R61      HGR62
    1    11    14    15	 9 ;      CG311      CG311      CG324      NG3P2
    1    11    14    55	 9 ;      CG311      CG311      CG324       HGA2
    1    11    14    56	 9 ;      CG311      CG311      CG324       HGA2
   12    11    14    15	 9 ;      OG311      CG311      CG324      NG3P2
   12    11    14    55	 9 ;      OG311      CG311      CG324       HGA2
   12    11    14    56	 9 ;      OG311      CG311      CG324       HGA2
   54    11    14    15	 9 ;       HGA1      CG311      CG324      NG3P2
   54    11    14    55	 9 ;       HGA1      CG311      CG324       HGA2
   54    11    14    56	 9 ;       HGA1      CG311      CG324       HGA2
   14    11    12    13	 9 ;      CG324      CG311      OG311       HGP1
    1    11    12    13	 9 ;      CG311      CG311      OG311       HGP1
   54    11    12    13	 9 ;       HGA1      CG311      OG311       HGP1
   11    14    15    18	 9 ;      CG311      CG324      NG3P2      CG324
   11    14    15    16	 9 ;      CG311      CG324      NG3P2       HGP2
   11    14    15    17	 9 ;      CG311      CG324      NG3P2       HGP2
   55    14    15    18	 9 ;       HGA2      CG324      NG3P2      CG324
   55    14    15    16	 9 ;       HGA2      CG324      NG3P2       HGP2
   55    14    15    17	 9 ;       HGA2      CG324      NG3P2       HGP2
   56    14    15    18	 9 ;       HGA2      CG324      NG3P2      CG324
   56    14    15    16	 9 ;       HGA2      CG324      NG3P2       HGP2
   56    14    15    17	 9 ;       HGA2      CG324      NG3P2       HGP2
   16    15    18    19	 9 ;       HGP2      NG3P2      CG324     CG2R61
   16    15    18    57	 9 ;       HGP2      NG3P2      CG324       HGA2
   16    15    18    58	 9 ;       HGP2      NG3P2      CG324       HGA2
   17    15    18    19	 9 ;       HGP2      NG3P2      CG324     CG2R61
   17    15    18    57	 9 ;       HGP2      NG3P2      CG324       HGA2
   17    15    18    58	 9 ;       HGP2      NG3P2      CG324       HGA2
   14    15    18    19	 9 ;      CG324      NG3P2      CG324     CG2R61
   14    15    18    57	 9 ;      CG324      NG3P2      CG324       HGA2
   14    15    18    58	 9 ;      CG324      NG3P2      CG324       HGA2
   15    18    19    20	 9 ;      NG3P2      CG324     CG2R61     CG2R61
   15    18    19    24	 9 ;      NG3P2      CG324     CG2R61     CG2R61
   57    18    19    20	 9 ;       HGA2      CG324     CG2R61     CG2R61
   57    18    19    24	 9 ;       HGA2      CG324     CG2R61     CG2R61
   58    18    19    20	 9 ;       HGA2      CG324     CG2R61     CG2R61
   58    18    19    24	 9 ;       HGA2      CG324     CG2R61     CG2R61
   18    19    20    21	 9 ;      CG324     CG2R61     CG2R61     CG2R61
   18    19    20    59	 9 ;      CG324     CG2R61     CG2R61      HGR61
   24    19    20    21	 9 ;     CG2R61     CG2R61     CG2R61     CG2R61
   24    19    20    59	 9 ;     CG2R61     CG2R61     CG2R61      HGR61
   20    19    24    23	 9 ;     CG2R61     CG2R61     CG2R61     CG2R61
   20    19    24    62	 9 ;     CG2R61     CG2R61     CG2R61      HGR61
   18    19    24    23	 9 ;      CG324     CG2R61     CG2R61     CG2R61
   18    19    24    62	 9 ;      CG324     CG2R61     CG2R61      HGR61
   19    20    21    25	 9 ;     CG2R61     CG2R61     CG2R61      OG301
   19    20    21    22	 9 ;     CG2R61     CG2R61     CG2R61     CG2R61
   59    20    21    25	 9 ;      HGR61     CG2R61     CG2R61      OG301
   59    20    21    22	 9 ;      HGR61     CG2R61     CG2R61     CG2R61
   20    21    25    26	 9 ;     CG2R61     CG2R61      OG301      CG331
   22    21    25    26	 9 ;     CG2R61     CG2R61      OG301      CG331
   25    21    22    23	 9 ;      OG301     CG2R61     CG2R61     CG2R61
   25    21    22    60	 9 ;      OG301     CG2R61     CG2R61      HGR61
   20    21    22    23	 9 ;     CG2R61     CG2R61     CG2R61     CG2R61
   20    21    22    60	 9 ;     CG2R61     CG2R61     CG2R61      HGR61
   21    22    23    24	 9 ;     CG2R61     CG2R61     CG2R61     CG2R61
   21    22    23    61	 9 ;     CG2R61     CG2R61     CG2R61      HGR61
   60    22    23    24	 9 ;      HGR61     CG2R61     CG2R61     CG2R61
   60    22    23    61	 9 ;      HGR61     CG2R61     CG2R61      HGR61
   22    23    24    19	 9 ;     CG2R61     CG2R61     CG2R61     CG2R61
   22    23    24    62	 9 ;     CG2R61     CG2R61     CG2R61      HGR61
   61    23    24    19	 9 ;      HGR61     CG2R61     CG2R61     CG2R61
   61    23    24    62	 9 ;      HGR61     CG2R61     CG2R61      HGR61
   21    25    26    63	 9 ;     CG2R61      OG301      CG331       HGA3
   21    25    26    64	 9 ;     CG2R61      OG301      CG331       HGA3
   21    25    26    65	 9 ;     CG2R61      OG301      CG331       HGA3
    1    27    28    31	 9 ;      CG311      NG2S1      CG2O1     CG2R61
    1    27    28    29	 9 ;      CG311      NG2S1      CG2O1      OG2D1
   30    27    28    31	 9 ;       HGP1      NG2S1      CG2O1     CG2R61
   30    27    28    29	 9 ;       HGP1      NG2S1      CG2O1      OG2D1
   27    28    31    32	 9 ;      NG2S1      CG2O1     CG2R61     CG2R61
   27    28    31    36	 9 ;      NG2S1      CG2O1     CG2R61     CG2R61
   29    28    31    32	 9 ;      OG2D1      CG2O1     CG2R61     CG2R61
   29    28    31    36	 9 ;      OG2D1      CG2O1     CG2R61     CG2R61
   36    31    32    33	 9 ;     CG2R61     CG2R61     CG2R61     CG2R61
   36    31    32    66	 9 ;     CG2R61     CG2R61     CG2R61      HGR61
   28    31    32    33	 9 ;      CG2O1     CG2R61     CG2R61     CG2R61
   28    31    32    66	 9 ;      CG2O1     CG2R61     CG2R61      HGR61
   32    31    36    35	 9 ;     CG2R61     CG2R61     CG2R61     CG2R61
   32    31    36    69	 9 ;     CG2R61     CG2R61     CG2R61      HGR61
   28    31    36    35	 9 ;      CG2O1     CG2R61     CG2R61     CG2R61
   28    31    36    69	 9 ;      CG2O1     CG2R61     CG2R61      HGR61
   31    32    33    37	 9 ;     CG2R61     CG2R61     CG2R61      NG301
   31    32    33    34	 9 ;     CG2R61     CG2R61     CG2R61     CG2R61
   66    32    33    37	 9 ;      HGR61     CG2R61     CG2R61      NG301
   66    32    33    34	 9 ;      HGR61     CG2R61     CG2R61     CG2R61
   34    33    37    42	 9 ;     CG2R61     CG2R61      NG301     CG2R61
   34    33    37    38	 9 ;     CG2R61     CG2R61      NG301      SG3O2
   32    33    37    42	 9 ;     CG2R61     CG2R61      NG301     CG2R61
   32    33    37    38	 9 ;     CG2R61     CG2R61      NG301      SG3O2
   37    33    34    35	 9 ;      NG301     CG2R61     CG2R61     CG2R61
   37    33    34    67	 9 ;      NG301     CG2R61     CG2R61      HGR61
   32    33    34    35	 9 ;     CG2R61     CG2R61     CG2R61     CG2R61
   32    33    34    67	 9 ;     CG2R61     CG2R61     CG2R61      HGR61
   33    34    35    36	 9 ;     CG2R61     CG2R61     CG2R61     CG2R61
   33    34    35    68	 9 ;     CG2R61     CG2R61     CG2R61      HGR61
   67    34    35    36	 9 ;      HGR61     CG2R61     CG2R61     CG2R61
   67    34    35    68	 9 ;      HGR61     CG2R61     CG2R61      HGR61
   34    35    36    31	 9 ;     CG2R61     CG2R61     CG2R61     CG2R61
   34    35    36    69	 9 ;     CG2R61     CG2R61     CG2R61      HGR61
   68    35    36    31	 9 ;      HGR61     CG2R61     CG2R61     CG2R61
   68    35    36    69	 9 ;      HGR61     CG2R61     CG2R61      HGR61
   38    37    42    47	 9 ;      SG3O2      NG301     CG2R61     CG2R61
   38    37    42    43	 9 ;      SG3O2      NG301     CG2R61     CG2R61
   33    37    42    47	 9 ;     CG2R61      NG301     CG2R61     CG2R61
   33    37    42    43	 9 ;     CG2R61      NG301     CG2R61     CG2R61
   42    37    38    41	 9 ;     CG2R61      NG301      SG3O2      CG331
   42    37    38    40	 9 ;     CG2R61      NG301      SG3O2      OG2P1
   42    37    38    39	 9 ;     CG2R61      NG301      SG3O2      OG2P1
   33    37    38    41	 9 ;     CG2R61      NG301      SG3O2      CG331
   33    37    38    40	 9 ;     CG2R61      NG301      SG3O2      OG2P1
   33    37    38    39	 9 ;     CG2R61      NG301      SG3O2      OG2P1
   40    38    41    70	 9 ;      OG2P1      SG3O2      CG331       HGA3
   40    38    41    71	 9 ;      OG2P1      SG3O2      CG331       HGA3
   40    38    41    72	 9 ;      OG2P1      SG3O2      CG331       HGA3
   37    38    41    70	 9 ;      NG301      SG3O2      CG331       HGA3
   37    38    41    71	 9 ;      NG301      SG3O2      CG331       HGA3
   37    38    41    72	 9 ;      NG301      SG3O2      CG331       HGA3
   39    38    41    70	 9 ;      OG2P1      SG3O2      CG331       HGA3
   39    38    41    71	 9 ;      OG2P1      SG3O2      CG331       HGA3
   39    38    41    72	 9 ;      OG2P1      SG3O2      CG331       HGA3
   43    42    47    46	 9 ;     CG2R61     CG2R61     CG2R61     CG2R61
   43    42    47    77	 9 ;     CG2R61     CG2R61     CG2R61      HGR61
   37    42    47    46	 9 ;      NG301     CG2R61     CG2R61     CG2R61
   37    42    47    77	 9 ;      NG301     CG2R61     CG2R61      HGR61
   47    42    43    44	 9 ;     CG2R61     CG2R61     CG2R61     CG2R61
   47    42    43    73	 9 ;     CG2R61     CG2R61     CG2R61      HGR61
   37    42    43    44	 9 ;      NG301     CG2R61     CG2R61     CG2R61
   37    42    43    73	 9 ;      NG301     CG2R61     CG2R61      HGR61
   42    43    44    45	 9 ;     CG2R61     CG2R61     CG2R61     CG2R61
   42    43    44    74	 9 ;     CG2R61     CG2R61     CG2R61      HGR61
   73    43    44    45	 9 ;      HGR61     CG2R61     CG2R61     CG2R61
   73    43    44    74	 9 ;      HGR61     CG2R61     CG2R61      HGR61
   43    44    45    46	 9 ;     CG2R61     CG2R61     CG2R61     CG2R61
   43    44    45    75	 9 ;     CG2R61     CG2R61     CG2R61      HGR61
   74    44    45    46	 9 ;      HGR61     CG2R61     CG2R61     CG2R61
   74    44    45    75	 9 ;      HGR61     CG2R61     CG2R61      HGR61
   44    45    46    47	 9 ;     CG2R61     CG2R61     CG2R61     CG2R61
   44    45    46    76	 9 ;     CG2R61     CG2R61     CG2R61      HGR61
   75    45    46    47	 9 ;      HGR61     CG2R61     CG2R61     CG2R61
   75    45    46    76	 9 ;      HGR61     CG2R61     CG2R61      HGR61
   45    46    47    42	 9 ;     CG2R61     CG2R61     CG2R61     CG2R61
   45    46    47    77	 9 ;     CG2R61     CG2R61     CG2R61      HGR61
   76    46    47    42	 9 ;      HGR61     CG2R61     CG2R61     CG2R61
   76    46    47    77	 9 ;      HGR61     CG2R61     CG2R61      HGR61

[ dihedrals ]
;	ai	  aj	ak	  al funct			  c0			c1			  c2			c3
   28    31    27    29	 2

