; Created by cgenff_charmm2gmx.py

[ moleculetype ]
; Name			   nrexcl
LIG				 3

[ atoms ]
;	 nr		  type	resnr residue  atom   cgnr	   charge		mass  typeB    chargeB		massB
; residue	 1 LIG rtp LIG q	qsum
     1      SG3O2      1    LIG      S      1      0.113     32.060   ;
     2      OG2P1      1    LIG     O1      2     -0.300     15.999   ;
     3      OG2P1      1    LIG     O2      3     -0.300     15.999   ;
     4      CG321      1    LIG     C1      4      0.180     12.011   ;
     5      CG311      1    LIG     C2      5     -0.145     12.011   ;
     6      CG311      1    LIG     C3      6      0.100     12.011   ;
     7      CG314      1    LIG     C4      7     -0.043     12.011   ;
     8      CG321      1    LIG     C5      8      0.224     12.011   ;
     9      CG321      1    LIG     C6      9     -0.063     12.011   ;
    10     CG2R61      1    LIG     C7     10     -0.127     12.011   ;
    11     CG2R61      1    LIG     C8     11     -0.268     12.011   ;
    12     CG2RC0      1    LIG     C9     12      0.176     12.011   ;
    13     CG2RC0      1    LIG    C10     13      0.244     12.011   ;
    14     CG2R51      1    LIG    C11     14     -0.011     12.011   ;
    15     NG2R51      1    LIG     N1     15     -0.478     14.007   ;
    16     CG2R61      1    LIG    C12     16     -0.258     12.011   ;
    17     CG2R51      1    LIG    C13     17     -0.080     12.011   ;
    18       HGP1      1    LIG     H1     18      0.348      1.008   ;
    19     CG2R61      1    LIG    C14     19     -0.184     12.011   ;
    20      CG321      1    LIG    C15     20     -0.245     12.011   ;
    21      CG312      1    LIG    C16     21      0.143     12.011   ;
    22       FGA2      1    LIG     F1     22     -0.173     18.998   ;
    23       FGA2      1    LIG     F2     23     -0.173     18.998   ;
    24      OG311      1    LIG     O3     24     -0.595     15.999   ;
    25       HGP1      1    LIG     H2     25      0.422      1.008   ;
    26      NG3P2      1    LIG     N2     26     -0.444     14.007   ;
    27       HGP2      1    LIG     H3     27      0.346      1.008   ;
    28       HGP2      1    LIG     H4     28      0.346      1.008   ;
    29      CG324      1    LIG    C17     29      0.178     12.011   ;
    30     CG2R61      1    LIG    C18     30      0.036     12.011   ;
    31     CG2R61      1    LIG    C19     31     -0.124     12.011   ;
    32     CG2R61      1    LIG    C20     32      0.084     12.011   ;
    33     CG2R61      1    LIG    C21     33     -0.121     12.011   ;
    34     CG2R61      1    LIG    C22     34     -0.108     12.011   ;
    35     CG2R61      1    LIG    C23     35     -0.119     12.011   ;
    36      CG301      1    LIG    C24     36     -0.018     12.011   ;
    37      CG331      1    LIG    C25     37     -0.289     12.011   ;
    38      CG331      1    LIG    C26     38     -0.289     12.011   ;
    39      CG331      1    LIG    C27     39     -0.289     12.011   ;
    40       HGA2      1    LIG    HC2     40      0.090      1.008   ;
    41       HGA2      1    LIG    HC3     41      0.090      1.008   ;
    42       HGA1      1    LIG     HC     42      0.090      1.008   ;
    43       HGA1      1    LIG    HC1     43      0.090      1.008   ;
    44       HGA1      1    LIG    HC4     44      0.109      1.008   ;
    45       HGA2      1    LIG    HC5     45      0.090      1.008   ;
    46       HGA2      1    LIG    HC6     46      0.090      1.008   ;
    47       HGA2      1    LIG    HC7     47      0.090      1.008   ;
    48       HGA2      1    LIG    HC8     48      0.090      1.008   ;
    49      HGR61      1    LIG    HC9     49      0.197      1.008   ;
    50      HGR61      1    LIG   HC10     50      0.184      1.008   ;
    51      HGR52      1    LIG   HC11     51      0.181      1.008   ;
    52      HGR61      1    LIG   HC12     52      0.134      1.008   ;
    53       HGA2      1    LIG   HC13     53      0.090      1.008   ;
    54       HGA2      1    LIG   HC14     54      0.090      1.008   ;
    55       HGA7      1    LIG   HC15     55      0.145      1.008   ;
    56       HGA2      1    LIG   HC16     56      0.090      1.008   ;
    57       HGA2      1    LIG   HC17     57      0.090      1.008   ;
    58      HGR61      1    LIG   HC18     58      0.116      1.008   ;
    59      HGR61      1    LIG   HC19     59      0.116      1.008   ;
    60      HGR61      1    LIG   HC20     60      0.116      1.008   ;
    61      HGR61      1    LIG   HC21     61      0.116      1.008   ;
    62       HGA3      1    LIG   HC22     62      0.090      1.008   ;
    63       HGA3      1    LIG   HC23     63      0.090      1.008   ;
    64       HGA3      1    LIG   HC24     64      0.090      1.008   ;
    65       HGA3      1    LIG   HC25     65      0.090      1.008   ;
    66       HGA3      1    LIG   HC26     66      0.090      1.008   ;
    67       HGA3      1    LIG   HC27     67      0.090      1.008   ;
    68       HGA3      1    LIG   HC28     68      0.090      1.008   ;
    69       HGA3      1    LIG   HC29     69      0.090      1.008   ;
    70       HGA3      1    LIG   HC30     70      0.090      1.008   ;

[ bonds ]
;	ai	  aj funct			  c0			c1			  c2			c3
    1     3	 1 ;       SG3O2      OG2P1
    1     8	 1 ;       SG3O2      CG321
    1     2	 1 ;       SG3O2      OG2P1
    1     4	 1 ;       SG3O2      CG321
    4     5	 1 ;       CG321      CG311
    4    40	 1 ;       CG321       HGA2
    4    41	 1 ;       CG321       HGA2
    5     6	 1 ;       CG311      CG311
    5     9	 1 ;       CG311      CG321
    5    42	 1 ;       CG311       HGA1
    6     7	 1 ;       CG311      CG314
    6    24	 1 ;       CG311      OG311
    6    43	 1 ;       CG311       HGA1
    7     8	 1 ;       CG314      CG321
    7    26	 1 ;       CG314      NG3P2
    7    44	 1 ;       CG314       HGA1
    8    45	 1 ;       CG321       HGA2
    8    46	 1 ;       CG321       HGA2
    9    10	 1 ;       CG321     CG2R61
    9    47	 1 ;       CG321       HGA2
    9    48	 1 ;       CG321       HGA2
   10    11	 1 ;      CG2R61     CG2R61
   10    19	 1 ;      CG2R61     CG2R61
   11    12	 1 ;      CG2R61     CG2RC0
   11    49	 1 ;      CG2R61      HGR61
   12    14	 1 ;      CG2RC0     CG2R51
   12    13	 1 ;      CG2RC0     CG2RC0
   13    16	 1 ;      CG2RC0     CG2R61
   13    15	 1 ;      CG2RC0     NG2R51
   14    20	 1 ;      CG2R51      CG321
   14    17	 1 ;      CG2R51     CG2R51
   15    17	 1 ;      NG2R51     CG2R51
   15    18	 1 ;      NG2R51       HGP1
   16    19	 1 ;      CG2R61     CG2R61
   16    50	 1 ;      CG2R61      HGR61
   17    51	 1 ;      CG2R51      HGR52
   19    52	 1 ;      CG2R61      HGR61
   20    21	 1 ;       CG321      CG312
   20    53	 1 ;       CG321       HGA2
   20    54	 1 ;       CG321       HGA2
   21    22	 1 ;       CG312       FGA2
   21    23	 1 ;       CG312       FGA2
   21    55	 1 ;       CG312       HGA7
   24    25	 1 ;       OG311       HGP1
   26    28	 1 ;       NG3P2       HGP2
   26    27	 1 ;       NG3P2       HGP2
   26    29	 1 ;       NG3P2      CG324
   29    30	 1 ;       CG324     CG2R61
   29    56	 1 ;       CG324       HGA2
   29    57	 1 ;       CG324       HGA2
   30    35	 1 ;      CG2R61     CG2R61
   30    31	 1 ;      CG2R61     CG2R61
   31    32	 1 ;      CG2R61     CG2R61
   31    58	 1 ;      CG2R61      HGR61
   32    33	 1 ;      CG2R61     CG2R61
   32    36	 1 ;      CG2R61      CG301
   33    34	 1 ;      CG2R61     CG2R61
   33    59	 1 ;      CG2R61      HGR61
   34    35	 1 ;      CG2R61     CG2R61
   34    60	 1 ;      CG2R61      HGR61
   35    61	 1 ;      CG2R61      HGR61
   36    37	 1 ;       CG301      CG331
   36    38	 1 ;       CG301      CG331
   36    39	 1 ;       CG301      CG331
   37    62	 1 ;       CG331       HGA3
   37    63	 1 ;       CG331       HGA3
   37    64	 1 ;       CG331       HGA3
   38    68	 1 ;       CG331       HGA3
   38    69	 1 ;       CG331       HGA3
   38    70	 1 ;       CG331       HGA3
   39    65	 1 ;       CG331       HGA3
   39    66	 1 ;       CG331       HGA3
   39    67	 1 ;       CG331       HGA3

[ pairs ]
;	ai	  aj funct			  c0			c1			  c2			c3
    1     6	 1
    1     9	 1
    1    42	 1
    1    26	 1
    1    44	 1
    2     7	 1
    2    45	 1
    2    46	 1
    2     5	 1
    2    40	 1
    2    41	 1
    3     7	 1
    3    45	 1
    3    46	 1
    3     5	 1
    3    40	 1
    3    41	 1
    4     7	 1
    4    45	 1
    4    46	 1
    4    24	 1
    4    43	 1
    4    10	 1
    4    47	 1
    4    48	 1
    5     8	 1
    5    26	 1
    5    44	 1
    5    25	 1
    5    11	 1
    5    19	 1
    6    40	 1
    6    41	 1
    6    10	 1
    6    47	 1
    6    48	 1
    6    45	 1
    6    46	 1
    6    28	 1
    6    27	 1
    6    29	 1
    7     9	 1
    7    42	 1
    7    25	 1
    7    30	 1
    7    56	 1
    7    57	 1
    8    40	 1
    8    41	 1
    8    24	 1
    8    43	 1
    8    28	 1
    8    27	 1
    8    29	 1
    9    40	 1
    9    41	 1
    9    24	 1
    9    43	 1
    9    12	 1
    9    49	 1
    9    16	 1
    9    52	 1
   10    42	 1
   10    14	 1
   10    13	 1
   10    50	 1
   11    47	 1
   11    48	 1
   11    16	 1
   11    52	 1
   11    20	 1
   11    17	 1
   11    15	 1
   12    19	 1
   12    50	 1
   12    18	 1
   12    21	 1
   12    53	 1
   12    54	 1
   12    51	 1
   13    49	 1
   13    20	 1
   13    51	 1
   13    52	 1
   14    49	 1
   14    16	 1
   14    18	 1
   14    22	 1
   14    23	 1
   14    55	 1
   15    19	 1
   15    50	 1
   15    20	 1
   16    17	 1
   16    18	 1
   17    21	 1
   17    53	 1
   17    54	 1
   18    51	 1
   19    47	 1
   19    48	 1
   19    49	 1
   20    51	 1
   22    53	 1
   22    54	 1
   23    53	 1
   23    54	 1
   24    42	 1
   24    26	 1
   24    44	 1
   25    43	 1
   26    43	 1
   26    45	 1
   26    46	 1
   26    35	 1
   26    31	 1
   27    44	 1
   27    30	 1
   27    56	 1
   27    57	 1
   28    44	 1
   28    30	 1
   28    56	 1
   28    57	 1
   29    44	 1
   29    34	 1
   29    61	 1
   29    32	 1
   29    58	 1
   30    33	 1
   30    36	 1
   30    60	 1
   31    56	 1
   31    57	 1
   31    34	 1
   31    61	 1
   31    59	 1
   31    37	 1
   31    38	 1
   31    39	 1
   32    35	 1
   32    60	 1
   32    62	 1
   32    63	 1
   32    64	 1
   32    68	 1
   32    69	 1
   32    70	 1
   32    65	 1
   32    66	 1
   32    67	 1
   33    58	 1
   33    37	 1
   33    38	 1
   33    39	 1
   33    61	 1
   34    36	 1
   35    56	 1
   35    57	 1
   35    58	 1
   35    59	 1
   36    58	 1
   36    59	 1
   37    68	 1
   37    69	 1
   37    70	 1
   37    65	 1
   37    66	 1
   37    67	 1
   38    62	 1
   38    63	 1
   38    64	 1
   38    65	 1
   38    66	 1
   38    67	 1
   39    62	 1
   39    63	 1
   39    64	 1
   39    68	 1
   39    69	 1
   39    70	 1
   40    42	 1
   41    42	 1
   42    43	 1
   42    47	 1
   42    48	 1
   43    44	 1
   44    45	 1
   44    46	 1
   50    52	 1
   53    55	 1
   54    55	 1
   59    60	 1
   60    61	 1

[ angles ]
;	ai	  aj	ak funct			c0			  c1			c2			  c3
    3     1     8	5 ;      OG2P1      SG3O2      CG321
    3     1     2	5 ;      OG2P1      SG3O2      OG2P1
    3     1     4	5 ;      OG2P1      SG3O2      CG321
    8     1     2	5 ;      CG321      SG3O2      OG2P1
    8     1     4	5 ;      CG321      SG3O2      CG321
    2     1     4	5 ;      OG2P1      SG3O2      CG321
    1     4     5	5 ;      SG3O2      CG321      CG311
    1     4    40	5 ;      SG3O2      CG321       HGA2
    1     4    41	5 ;      SG3O2      CG321       HGA2
    5     4    40	5 ;      CG311      CG321       HGA2
    5     4    41	5 ;      CG311      CG321       HGA2
   40     4    41	5 ;       HGA2      CG321       HGA2
    4     5     6	5 ;      CG321      CG311      CG311
    4     5     9	5 ;      CG321      CG311      CG321
    4     5    42	5 ;      CG321      CG311       HGA1
    6     5     9	5 ;      CG311      CG311      CG321
    6     5    42	5 ;      CG311      CG311       HGA1
    9     5    42	5 ;      CG321      CG311       HGA1
    7     6    24	5 ;      CG314      CG311      OG311
    7     6     5	5 ;      CG314      CG311      CG311
    7     6    43	5 ;      CG314      CG311       HGA1
   24     6     5	5 ;      OG311      CG311      CG311
   24     6    43	5 ;      OG311      CG311       HGA1
    5     6    43	5 ;      CG311      CG311       HGA1
    8     7    26	5 ;      CG321      CG314      NG3P2
    8     7     6	5 ;      CG321      CG314      CG311
    8     7    44	5 ;      CG321      CG314       HGA1
   26     7     6	5 ;      NG3P2      CG314      CG311
   26     7    44	5 ;      NG3P2      CG314       HGA1
    6     7    44	5 ;      CG311      CG314       HGA1
    1     8     7	5 ;      SG3O2      CG321      CG314
    1     8    45	5 ;      SG3O2      CG321       HGA2
    1     8    46	5 ;      SG3O2      CG321       HGA2
    7     8    45	5 ;      CG314      CG321       HGA2
    7     8    46	5 ;      CG314      CG321       HGA2
   45     8    46	5 ;       HGA2      CG321       HGA2
    5     9    10	5 ;      CG311      CG321     CG2R61
    5     9    47	5 ;      CG311      CG321       HGA2
    5     9    48	5 ;      CG311      CG321       HGA2
   10     9    47	5 ;     CG2R61      CG321       HGA2
   10     9    48	5 ;     CG2R61      CG321       HGA2
   47     9    48	5 ;       HGA2      CG321       HGA2
    9    10    11	5 ;      CG321     CG2R61     CG2R61
    9    10    19	5 ;      CG321     CG2R61     CG2R61
   11    10    19	5 ;     CG2R61     CG2R61     CG2R61
   10    11    12	5 ;     CG2R61     CG2R61     CG2RC0
   10    11    49	5 ;     CG2R61     CG2R61      HGR61
   12    11    49	5 ;     CG2RC0     CG2R61      HGR61
   11    12    14	5 ;     CG2R61     CG2RC0     CG2R51
   11    12    13	5 ;     CG2R61     CG2RC0     CG2RC0
   14    12    13	5 ;     CG2R51     CG2RC0     CG2RC0
   12    13    16	5 ;     CG2RC0     CG2RC0     CG2R61
   12    13    15	5 ;     CG2RC0     CG2RC0     NG2R51
   16    13    15	5 ;     CG2R61     CG2RC0     NG2R51
   12    14    20	5 ;     CG2RC0     CG2R51      CG321
   12    14    17	5 ;     CG2RC0     CG2R51     CG2R51
   20    14    17	5 ;      CG321     CG2R51     CG2R51
   13    15    17	5 ;     CG2RC0     NG2R51     CG2R51
   13    15    18	5 ;     CG2RC0     NG2R51       HGP1
   17    15    18	5 ;     CG2R51     NG2R51       HGP1
   19    16    13	5 ;     CG2R61     CG2R61     CG2RC0
   19    16    50	5 ;     CG2R61     CG2R61      HGR61
   13    16    50	5 ;     CG2RC0     CG2R61      HGR61
   14    17    15	5 ;     CG2R51     CG2R51     NG2R51
   14    17    51	5 ;     CG2R51     CG2R51      HGR52
   15    17    51	5 ;     NG2R51     CG2R51      HGR52
   10    19    16	5 ;     CG2R61     CG2R61     CG2R61
   10    19    52	5 ;     CG2R61     CG2R61      HGR61
   16    19    52	5 ;     CG2R61     CG2R61      HGR61
   21    20    14	5 ;      CG312      CG321     CG2R51
   21    20    53	5 ;      CG312      CG321       HGA2
   21    20    54	5 ;      CG312      CG321       HGA2
   14    20    53	5 ;     CG2R51      CG321       HGA2
   14    20    54	5 ;     CG2R51      CG321       HGA2
   53    20    54	5 ;       HGA2      CG321       HGA2
   22    21    20	5 ;       FGA2      CG312      CG321
   22    21    23	5 ;       FGA2      CG312       FGA2
   22    21    55	5 ;       FGA2      CG312       HGA7
   20    21    23	5 ;      CG321      CG312       FGA2
   20    21    55	5 ;      CG321      CG312       HGA7
   23    21    55	5 ;       FGA2      CG312       HGA7
   25    24     6	5 ;       HGP1      OG311      CG311
    7    26    28	5 ;      CG314      NG3P2       HGP2
    7    26    27	5 ;      CG314      NG3P2       HGP2
    7    26    29	5 ;      CG314      NG3P2      CG324
   28    26    27	5 ;       HGP2      NG3P2       HGP2
   28    26    29	5 ;       HGP2      NG3P2      CG324
   27    26    29	5 ;       HGP2      NG3P2      CG324
   26    29    30	5 ;      NG3P2      CG324     CG2R61
   26    29    56	5 ;      NG3P2      CG324       HGA2
   26    29    57	5 ;      NG3P2      CG324       HGA2
   30    29    56	5 ;     CG2R61      CG324       HGA2
   30    29    57	5 ;     CG2R61      CG324       HGA2
   56    29    57	5 ;       HGA2      CG324       HGA2
   29    30    35	5 ;      CG324     CG2R61     CG2R61
   29    30    31	5 ;      CG324     CG2R61     CG2R61
   35    30    31	5 ;     CG2R61     CG2R61     CG2R61
   30    31    32	5 ;     CG2R61     CG2R61     CG2R61
   30    31    58	5 ;     CG2R61     CG2R61      HGR61
   32    31    58	5 ;     CG2R61     CG2R61      HGR61
   31    32    33	5 ;     CG2R61     CG2R61     CG2R61
   31    32    36	5 ;     CG2R61     CG2R61      CG301
   33    32    36	5 ;     CG2R61     CG2R61      CG301
   34    33    32	5 ;     CG2R61     CG2R61     CG2R61
   34    33    59	5 ;     CG2R61     CG2R61      HGR61
   32    33    59	5 ;     CG2R61     CG2R61      HGR61
   35    34    33	5 ;     CG2R61     CG2R61     CG2R61
   35    34    60	5 ;     CG2R61     CG2R61      HGR61
   33    34    60	5 ;     CG2R61     CG2R61      HGR61
   30    35    34	5 ;     CG2R61     CG2R61     CG2R61
   30    35    61	5 ;     CG2R61     CG2R61      HGR61
   34    35    61	5 ;     CG2R61     CG2R61      HGR61
   32    36    37	5 ;     CG2R61      CG301      CG331
   32    36    38	5 ;     CG2R61      CG301      CG331
   32    36    39	5 ;     CG2R61      CG301      CG331
   37    36    38	5 ;      CG331      CG301      CG331
   37    36    39	5 ;      CG331      CG301      CG331
   38    36    39	5 ;      CG331      CG301      CG331
   36    37    62	5 ;      CG301      CG331       HGA3
   36    37    63	5 ;      CG301      CG331       HGA3
   36    37    64	5 ;      CG301      CG331       HGA3
   62    37    63	5 ;       HGA3      CG331       HGA3
   62    37    64	5 ;       HGA3      CG331       HGA3
   63    37    64	5 ;       HGA3      CG331       HGA3
   36    38    68	5 ;      CG301      CG331       HGA3
   36    38    69	5 ;      CG301      CG331       HGA3
   36    38    70	5 ;      CG301      CG331       HGA3
   68    38    69	5 ;       HGA3      CG331       HGA3
   68    38    70	5 ;       HGA3      CG331       HGA3
   69    38    70	5 ;       HGA3      CG331       HGA3
   36    39    65	5 ;      CG301      CG331       HGA3
   36    39    66	5 ;      CG301      CG331       HGA3
   36    39    67	5 ;      CG301      CG331       HGA3
   65    39    66	5 ;       HGA3      CG331       HGA3
   65    39    67	5 ;       HGA3      CG331       HGA3
   66    39    67	5 ;       HGA3      CG331       HGA3

[ dihedrals ]
;	ai	  aj	ak	  al funct			  c0			c1			  c2			c3			  c4			c5
    3     1     8     7	 9 ;      OG2P1      SG3O2      CG321      CG314
    3     1     8    45	 9 ;      OG2P1      SG3O2      CG321       HGA2
    3     1     8    46	 9 ;      OG2P1      SG3O2      CG321       HGA2
    2     1     8     7	 9 ;      OG2P1      SG3O2      CG321      CG314
    2     1     8    45	 9 ;      OG2P1      SG3O2      CG321       HGA2
    2     1     8    46	 9 ;      OG2P1      SG3O2      CG321       HGA2
    4     1     8     7	 9 ;      CG321      SG3O2      CG321      CG314
    4     1     8    45	 9 ;      CG321      SG3O2      CG321       HGA2
    4     1     8    46	 9 ;      CG321      SG3O2      CG321       HGA2
    3     1     4     5	 9 ;      OG2P1      SG3O2      CG321      CG311
    3     1     4    40	 9 ;      OG2P1      SG3O2      CG321       HGA2
    3     1     4    41	 9 ;      OG2P1      SG3O2      CG321       HGA2
    8     1     4     5	 9 ;      CG321      SG3O2      CG321      CG311
    8     1     4    40	 9 ;      CG321      SG3O2      CG321       HGA2
    8     1     4    41	 9 ;      CG321      SG3O2      CG321       HGA2
    2     1     4     5	 9 ;      OG2P1      SG3O2      CG321      CG311
    2     1     4    40	 9 ;      OG2P1      SG3O2      CG321       HGA2
    2     1     4    41	 9 ;      OG2P1      SG3O2      CG321       HGA2
    1     4     5     6	 9 ;      SG3O2      CG321      CG311      CG311
    1     4     5     9	 9 ;      SG3O2      CG321      CG311      CG321
    1     4     5    42	 9 ;      SG3O2      CG321      CG311       HGA1
   40     4     5     6	 9 ;       HGA2      CG321      CG311      CG311
   40     4     5     9	 9 ;       HGA2      CG321      CG311      CG321
   40     4     5    42	 9 ;       HGA2      CG321      CG311       HGA1
   41     4     5     6	 9 ;       HGA2      CG321      CG311      CG311
   41     4     5     9	 9 ;       HGA2      CG321      CG311      CG321
   41     4     5    42	 9 ;       HGA2      CG321      CG311       HGA1
    4     5     6     7	 9 ;      CG321      CG311      CG311      CG314
    4     5     6    24	 9 ;      CG321      CG311      CG311      OG311
    4     5     6    43	 9 ;      CG321      CG311      CG311       HGA1
    9     5     6     7	 9 ;      CG321      CG311      CG311      CG314
    9     5     6    24	 9 ;      CG321      CG311      CG311      OG311
    9     5     6    43	 9 ;      CG321      CG311      CG311       HGA1
   42     5     6     7	 9 ;       HGA1      CG311      CG311      CG314
   42     5     6    24	 9 ;       HGA1      CG311      CG311      OG311
   42     5     6    43	 9 ;       HGA1      CG311      CG311       HGA1
    4     5     9    10	 9 ;      CG321      CG311      CG321     CG2R61
    4     5     9    47	 9 ;      CG321      CG311      CG321       HGA2
    4     5     9    48	 9 ;      CG321      CG311      CG321       HGA2
    6     5     9    10	 9 ;      CG311      CG311      CG321     CG2R61
    6     5     9    47	 9 ;      CG311      CG311      CG321       HGA2
    6     5     9    48	 9 ;      CG311      CG311      CG321       HGA2
   42     5     9    10	 9 ;       HGA1      CG311      CG321     CG2R61
   42     5     9    47	 9 ;       HGA1      CG311      CG321       HGA2
   42     5     9    48	 9 ;       HGA1      CG311      CG321       HGA2
   24     6     7     8	 9 ;      OG311      CG311      CG314      CG321
   24     6     7    26	 9 ;      OG311      CG311      CG314      NG3P2
   24     6     7    44	 9 ;      OG311      CG311      CG314       HGA1
    5     6     7     8	 9 ;      CG311      CG311      CG314      CG321
    5     6     7    26	 9 ;      CG311      CG311      CG314      NG3P2
    5     6     7    44	 9 ;      CG311      CG311      CG314       HGA1
   43     6     7     8	 9 ;       HGA1      CG311      CG314      CG321
   43     6     7    26	 9 ;       HGA1      CG311      CG314      NG3P2
   43     6     7    44	 9 ;       HGA1      CG311      CG314       HGA1
    7     6    24    25	 9 ;      CG314      CG311      OG311       HGP1
    5     6    24    25	 9 ;      CG311      CG311      OG311       HGP1
   43     6    24    25	 9 ;       HGA1      CG311      OG311       HGP1
   26     7     8     1	 9 ;      NG3P2      CG314      CG321      SG3O2
   26     7     8    45	 9 ;      NG3P2      CG314      CG321       HGA2
   26     7     8    46	 9 ;      NG3P2      CG314      CG321       HGA2
    6     7     8     1	 9 ;      CG311      CG314      CG321      SG3O2
    6     7     8    45	 9 ;      CG311      CG314      CG321       HGA2
    6     7     8    46	 9 ;      CG311      CG314      CG321       HGA2
   44     7     8     1	 9 ;       HGA1      CG314      CG321      SG3O2
   44     7     8    45	 9 ;       HGA1      CG314      CG321       HGA2
   44     7     8    46	 9 ;       HGA1      CG314      CG321       HGA2
    8     7    26    28	 9 ;      CG321      CG314      NG3P2       HGP2
    8     7    26    27	 9 ;      CG321      CG314      NG3P2       HGP2
    8     7    26    29	 9 ;      CG321      CG314      NG3P2      CG324
    6     7    26    28	 9 ;      CG311      CG314      NG3P2       HGP2
    6     7    26    27	 9 ;      CG311      CG314      NG3P2       HGP2
    6     7    26    29	 9 ;      CG311      CG314      NG3P2      CG324
   44     7    26    28	 9 ;       HGA1      CG314      NG3P2       HGP2
   44     7    26    27	 9 ;       HGA1      CG314      NG3P2       HGP2
   44     7    26    29	 9 ;       HGA1      CG314      NG3P2      CG324
    5     9    10    11	 9 ;      CG311      CG321     CG2R61     CG2R61
    5     9    10    19	 9 ;      CG311      CG321     CG2R61     CG2R61
   47     9    10    11	 9 ;       HGA2      CG321     CG2R61     CG2R61
   47     9    10    19	 9 ;       HGA2      CG321     CG2R61     CG2R61
   48     9    10    11	 9 ;       HGA2      CG321     CG2R61     CG2R61
   48     9    10    19	 9 ;       HGA2      CG321     CG2R61     CG2R61
    9    10    11    12	 9 ;      CG321     CG2R61     CG2R61     CG2RC0
    9    10    11    49	 9 ;      CG321     CG2R61     CG2R61      HGR61
   19    10    11    12	 9 ;     CG2R61     CG2R61     CG2R61     CG2RC0
   19    10    11    49	 9 ;     CG2R61     CG2R61     CG2R61      HGR61
    9    10    19    16	 9 ;      CG321     CG2R61     CG2R61     CG2R61
    9    10    19    52	 9 ;      CG321     CG2R61     CG2R61      HGR61
   11    10    19    16	 9 ;     CG2R61     CG2R61     CG2R61     CG2R61
   11    10    19    52	 9 ;     CG2R61     CG2R61     CG2R61      HGR61
   10    11    12    14	 9 ;     CG2R61     CG2R61     CG2RC0     CG2R51
   10    11    12    13	 9 ;     CG2R61     CG2R61     CG2RC0     CG2RC0
   49    11    12    14	 9 ;      HGR61     CG2R61     CG2RC0     CG2R51
   49    11    12    13	 9 ;      HGR61     CG2R61     CG2RC0     CG2RC0
   11    12    14    20	 9 ;     CG2R61     CG2RC0     CG2R51      CG321
   11    12    14    17	 9 ;     CG2R61     CG2RC0     CG2R51     CG2R51
   13    12    14    20	 9 ;     CG2RC0     CG2RC0     CG2R51      CG321
   13    12    14    17	 9 ;     CG2RC0     CG2RC0     CG2R51     CG2R51
   11    12    13    16	 9 ;     CG2R61     CG2RC0     CG2RC0     CG2R61
   11    12    13    15	 9 ;     CG2R61     CG2RC0     CG2RC0     NG2R51
   14    12    13    16	 9 ;     CG2R51     CG2RC0     CG2RC0     CG2R61
   14    12    13    15	 9 ;     CG2R51     CG2RC0     CG2RC0     NG2R51
   12    13    16    19	 9 ;     CG2RC0     CG2RC0     CG2R61     CG2R61
   12    13    16    50	 9 ;     CG2RC0     CG2RC0     CG2R61      HGR61
   15    13    16    19	 9 ;     NG2R51     CG2RC0     CG2R61     CG2R61
   15    13    16    50	 9 ;     NG2R51     CG2RC0     CG2R61      HGR61
   12    13    15    17	 9 ;     CG2RC0     CG2RC0     NG2R51     CG2R51
   12    13    15    18	 9 ;     CG2RC0     CG2RC0     NG2R51       HGP1
   16    13    15    17	 9 ;     CG2R61     CG2RC0     NG2R51     CG2R51
   16    13    15    18	 9 ;     CG2R61     CG2RC0     NG2R51       HGP1
   12    14    20    21	 9 ;     CG2RC0     CG2R51      CG321      CG312
   12    14    20    53	 9 ;     CG2RC0     CG2R51      CG321       HGA2
   12    14    20    54	 9 ;     CG2RC0     CG2R51      CG321       HGA2
   17    14    20    21	 9 ;     CG2R51     CG2R51      CG321      CG312
   17    14    20    53	 9 ;     CG2R51     CG2R51      CG321       HGA2
   17    14    20    54	 9 ;     CG2R51     CG2R51      CG321       HGA2
   12    14    17    15	 9 ;     CG2RC0     CG2R51     CG2R51     NG2R51
   12    14    17    51	 9 ;     CG2RC0     CG2R51     CG2R51      HGR52
   20    14    17    15	 9 ;      CG321     CG2R51     CG2R51     NG2R51
   20    14    17    51	 9 ;      CG321     CG2R51     CG2R51      HGR52
   13    15    17    14	 9 ;     CG2RC0     NG2R51     CG2R51     CG2R51
   13    15    17    51	 9 ;     CG2RC0     NG2R51     CG2R51      HGR52
   18    15    17    14	 9 ;       HGP1     NG2R51     CG2R51     CG2R51
   18    15    17    51	 9 ;       HGP1     NG2R51     CG2R51      HGR52
   13    16    19    10	 9 ;     CG2RC0     CG2R61     CG2R61     CG2R61
   13    16    19    52	 9 ;     CG2RC0     CG2R61     CG2R61      HGR61
   50    16    19    10	 9 ;      HGR61     CG2R61     CG2R61     CG2R61
   50    16    19    52	 9 ;      HGR61     CG2R61     CG2R61      HGR61
   14    20    21    22	 9 ;     CG2R51      CG321      CG312       FGA2
   14    20    21    23	 9 ;     CG2R51      CG321      CG312       FGA2
   14    20    21    55	 9 ;     CG2R51      CG321      CG312       HGA7
   53    20    21    22	 9 ;       HGA2      CG321      CG312       FGA2
   53    20    21    23	 9 ;       HGA2      CG321      CG312       FGA2
   53    20    21    55	 9 ;       HGA2      CG321      CG312       HGA7
   54    20    21    22	 9 ;       HGA2      CG321      CG312       FGA2
   54    20    21    23	 9 ;       HGA2      CG321      CG312       FGA2
   54    20    21    55	 9 ;       HGA2      CG321      CG312       HGA7
    7    26    29    30	 9 ;      CG314      NG3P2      CG324     CG2R61
    7    26    29    56	 9 ;      CG314      NG3P2      CG324       HGA2
    7    26    29    57	 9 ;      CG314      NG3P2      CG324       HGA2
   28    26    29    30	 9 ;       HGP2      NG3P2      CG324     CG2R61
   28    26    29    56	 9 ;       HGP2      NG3P2      CG324       HGA2
   28    26    29    57	 9 ;       HGP2      NG3P2      CG324       HGA2
   27    26    29    30	 9 ;       HGP2      NG3P2      CG324     CG2R61
   27    26    29    56	 9 ;       HGP2      NG3P2      CG324       HGA2
   27    26    29    57	 9 ;       HGP2      NG3P2      CG324       HGA2
   26    29    30    35	 9 ;      NG3P2      CG324     CG2R61     CG2R61
   26    29    30    31	 9 ;      NG3P2      CG324     CG2R61     CG2R61
   56    29    30    35	 9 ;       HGA2      CG324     CG2R61     CG2R61
   56    29    30    31	 9 ;       HGA2      CG324     CG2R61     CG2R61
   57    29    30    35	 9 ;       HGA2      CG324     CG2R61     CG2R61
   57    29    30    31	 9 ;       HGA2      CG324     CG2R61     CG2R61
   29    30    35    34	 9 ;      CG324     CG2R61     CG2R61     CG2R61
   29    30    35    61	 9 ;      CG324     CG2R61     CG2R61      HGR61
   31    30    35    34	 9 ;     CG2R61     CG2R61     CG2R61     CG2R61
   31    30    35    61	 9 ;     CG2R61     CG2R61     CG2R61      HGR61
   29    30    31    32	 9 ;      CG324     CG2R61     CG2R61     CG2R61
   29    30    31    58	 9 ;      CG324     CG2R61     CG2R61      HGR61
   35    30    31    32	 9 ;     CG2R61     CG2R61     CG2R61     CG2R61
   35    30    31    58	 9 ;     CG2R61     CG2R61     CG2R61      HGR61
   30    31    32    33	 9 ;     CG2R61     CG2R61     CG2R61     CG2R61
   30    31    32    36	 9 ;     CG2R61     CG2R61     CG2R61      CG301
   58    31    32    33	 9 ;      HGR61     CG2R61     CG2R61     CG2R61
   58    31    32    36	 9 ;      HGR61     CG2R61     CG2R61      CG301
   31    32    33    34	 9 ;     CG2R61     CG2R61     CG2R61     CG2R61
   31    32    33    59	 9 ;     CG2R61     CG2R61     CG2R61      HGR61
   36    32    33    34	 9 ;      CG301     CG2R61     CG2R61     CG2R61
   36    32    33    59	 9 ;      CG301     CG2R61     CG2R61      HGR61
   31    32    36    37	 9 ;     CG2R61     CG2R61      CG301      CG331
   31    32    36    38	 9 ;     CG2R61     CG2R61      CG301      CG331
   31    32    36    39	 9 ;     CG2R61     CG2R61      CG301      CG331
   33    32    36    37	 9 ;     CG2R61     CG2R61      CG301      CG331
   33    32    36    38	 9 ;     CG2R61     CG2R61      CG301      CG331
   33    32    36    39	 9 ;     CG2R61     CG2R61      CG301      CG331
   32    33    34    35	 9 ;     CG2R61     CG2R61     CG2R61     CG2R61
   32    33    34    60	 9 ;     CG2R61     CG2R61     CG2R61      HGR61
   59    33    34    35	 9 ;      HGR61     CG2R61     CG2R61     CG2R61
   59    33    34    60	 9 ;      HGR61     CG2R61     CG2R61      HGR61
   33    34    35    30	 9 ;     CG2R61     CG2R61     CG2R61     CG2R61
   33    34    35    61	 9 ;     CG2R61     CG2R61     CG2R61      HGR61
   60    34    35    30	 9 ;      HGR61     CG2R61     CG2R61     CG2R61
   60    34    35    61	 9 ;      HGR61     CG2R61     CG2R61      HGR61
   32    36    37    62	 9 ;     CG2R61      CG301      CG331       HGA3
   32    36    37    63	 9 ;     CG2R61      CG301      CG331       HGA3
   32    36    37    64	 9 ;     CG2R61      CG301      CG331       HGA3
   38    36    37    62	 9 ;      CG331      CG301      CG331       HGA3
   38    36    37    63	 9 ;      CG331      CG301      CG331       HGA3
   38    36    37    64	 9 ;      CG331      CG301      CG331       HGA3
   39    36    37    62	 9 ;      CG331      CG301      CG331       HGA3
   39    36    37    63	 9 ;      CG331      CG301      CG331       HGA3
   39    36    37    64	 9 ;      CG331      CG301      CG331       HGA3
   32    36    38    68	 9 ;     CG2R61      CG301      CG331       HGA3
   32    36    38    69	 9 ;     CG2R61      CG301      CG331       HGA3
   32    36    38    70	 9 ;     CG2R61      CG301      CG331       HGA3
   37    36    38    68	 9 ;      CG331      CG301      CG331       HGA3
   37    36    38    69	 9 ;      CG331      CG301      CG331       HGA3
   37    36    38    70	 9 ;      CG331      CG301      CG331       HGA3
   39    36    38    68	 9 ;      CG331      CG301      CG331       HGA3
   39    36    38    69	 9 ;      CG331      CG301      CG331       HGA3
   39    36    38    70	 9 ;      CG331      CG301      CG331       HGA3
   32    36    39    65	 9 ;     CG2R61      CG301      CG331       HGA3
   32    36    39    66	 9 ;     CG2R61      CG301      CG331       HGA3
   32    36    39    67	 9 ;     CG2R61      CG301      CG331       HGA3
   37    36    39    65	 9 ;      CG331      CG301      CG331       HGA3
   37    36    39    66	 9 ;      CG331      CG301      CG331       HGA3
   37    36    39    67	 9 ;      CG331      CG301      CG331       HGA3
   38    36    39    65	 9 ;      CG331      CG301      CG331       HGA3
   38    36    39    66	 9 ;      CG331      CG301      CG331       HGA3
   38    36    39    67	 9 ;      CG331      CG301      CG331       HGA3

