Good gRace! Old Maple Actually Chews Slate
   70
    1LIG      S    1  -0.899   0.336  -1.996
    1LIG     O1    2  -0.961   0.466  -1.981
    1LIG     O2    3  -0.767   0.321  -2.053
    1LIG     C1    4  -0.903   0.252  -1.837
    1LIG     C2    5  -1.046   0.239  -1.781
    1LIG     C3    6  -1.142   0.175  -1.884
    1LIG     C4    7  -1.149   0.239  -2.025
    1LIG     C5    8  -1.012   0.241  -2.092
    1LIG     C6    9  -1.091   0.372  -1.715
    1LIG     C7   10  -1.156   0.367  -1.579
    1LIG     C8   11  -1.197   0.245  -1.522
    1LIG     C9   12  -1.238   0.240  -1.387
    1LIG    C10   13  -1.243   0.359  -1.314
    1LIG    C11   14  -1.268   0.133  -1.296
    1LIG     N1   15  -1.285   0.327  -1.187
    1LIG    C12   16  -1.205   0.482  -1.368
    1LIG    C13   17  -1.299   0.191  -1.174
    1LIG     H1   18  -1.295   0.393  -1.111
    1LIG    C14   19  -1.159   0.483  -1.500
    1LIG    C15   20  -1.256  -0.015  -1.320
    1LIG    C16   21  -1.161  -0.090  -1.228
    1LIG     F1   22  -1.051  -0.016  -1.202
    1LIG     F2   23  -1.220  -0.117  -1.109
    1LIG     O3   24  -1.093   0.041  -1.904
    1LIG     H2   25  -1.087  -0.005  -1.818
    1LIG     N2   26  -1.216   0.374  -2.020
    1LIG     H3   27  -1.174   0.432  -1.946
    1LIG     H4   28  -1.202   0.425  -2.109
    1LIG    C17   29  -1.365   0.378  -2.003
    1LIG    C18   30  -1.411   0.442  -1.875
    1LIG    C19   31  -1.489   0.370  -1.785
    1LIG    C20   32  -1.529   0.424  -1.661
    1LIG    C21   33  -1.488   0.556  -1.633
    1LIG    C22   34  -1.411   0.629  -1.723
    1LIG    C23   35  -1.372   0.573  -1.844
    1LIG    C24   36  -1.607   0.343  -1.557
    1LIG    C25   37  -1.559   0.196  -1.544
    1LIG    C26   38  -1.588   0.409  -1.418
    1LIG    C27   39  -1.756   0.338  -1.593
    1LIG    HC2   40  -0.843   0.309  -1.766
    1LIG    HC3   41  -0.860   0.153  -1.848
    1LIG     HC   42  -1.038   0.167  -1.699
    1LIG    HC1   43  -1.242   0.170  -1.841
    1LIG    HC4   44  -1.212   0.175  -2.086
    1LIG    HC5   45  -0.975   0.139  -2.102
    1LIG    HC6   46  -1.020   0.286  -2.191
    1LIG    HC7   47  -1.163   0.418  -1.783
    1LIG    HC8   48  -1.005   0.437  -1.709
    1LIG    HC9   49  -1.198   0.155  -1.582
    1LIG   HC10   50  -1.211   0.572  -1.310
    1LIG   HC11   51  -1.329   0.139  -1.085
    1LIG   HC12   52  -1.125   0.576  -1.543
    1LIG   HC13   53  -1.221  -0.029  -1.423
    1LIG   HC14   54  -1.355  -0.060  -1.312
    1LIG   HC15   55  -1.131  -0.183  -1.276
    1LIG   HC16   56  -1.403   0.276  -2.005
    1LIG   HC17   57  -1.408   0.433  -2.087
    1LIG   HC18   58  -1.520   0.269  -1.810
    1LIG   HC19   59  -1.518   0.601  -1.539
    1LIG   HC20   60  -1.382   0.731  -1.699
    1LIG   HC21   61  -1.311   0.630  -1.913
    1LIG   HC22   62  -1.453   0.194  -1.518
    1LIG   HC23   63  -1.574   0.144  -1.639
    1LIG   HC24   64  -1.616   0.146  -1.466
    1LIG   HC25   65  -1.794   0.440  -1.603
    1LIG   HC26   66  -1.811   0.287  -1.514
    1LIG   HC27   67  -1.770   0.285  -1.687
    1LIG   HC28   68  -1.630   0.345  -1.341
    1LIG   HC29   69  -1.640   0.505  -1.417
    1LIG   HC30   70  -1.482   0.424  -1.399
   0.00000   0.00000   0.00000
