; Created by cgenff_charmm2gmx.py

[ moleculetype ]
; Name			   nrexcl
LIG				 3

[ atoms ]
;	 nr		  type	resnr residue  atom   cgnr	   charge		mass  typeB    chargeB		massB
; residue	 1 LIG rtp LIG q	qsum
     1     CG3C50      1    LIG     C1      1      1.014     12.011   ;
     2     NG3C51      1    LIG     N1      2     -0.954     14.007   ;
     3     CG3C51      1    LIG     C2      3      0.292     12.011   ;
     4     NG3C51      1    LIG     N2      4     -0.733     14.007   ;
     5     CG3RC1      1    LIG     C3      5      0.432     12.011   ;
     6      NG3P2      1    LIG     N3      6     -0.582     14.007   ;
     7       HGP2      1    LIG     HN      7      0.335      1.008   ;
     8      CG324      1    LIG     C4      8      0.182     12.011   ;
     9      CG321      1    LIG     C5      9     -0.183     12.011   ;
    10      CG321      1    LIG     C6     10      0.283     12.011   ;
    11      NG321      1    LIG     N4     11     -0.868     14.007   ;
    12       HGP1      1    LIG     H1     12      0.206      1.008   ;
    13     HGPAM2      1    LIG     H2     13      0.349      1.008   ;
    14     HGPAM2      1    LIG     H3     14      0.349      1.008   ;
    15     CG2R61      1    LIG     C7     15     -0.000     12.011   ;
    16     CG2R61      1    LIG     C8     16     -0.188     12.011   ;
    17     CG2R61      1    LIG     C9     17      0.017     12.011   ;
    18     CG2R61      1    LIG    C10     18     -0.123     12.011   ;
    19     CG2R61      1    LIG    C11     19     -0.101     12.011   ;
    20     CG2R61      1    LIG    C12     20     -0.181     12.011   ;
    21      CG321      1    LIG    C13     21     -0.180     12.011   ;
    22     CG2R61      1    LIG    C14     22      0.006     12.011   ;
    23     CG2R61      1    LIG    C15     23     -0.120     12.011   ;
    24     CG2R61      1    LIG    C16     24     -0.117     12.011   ;
    25     CG2R61      1    LIG    C17     25      0.211     12.011   ;
    26     CG2R61      1    LIG    C18     26     -0.117     12.011   ;
    27     CG2R61      1    LIG    C19     27     -0.120     12.011   ;
    28      OG301      1    LIG      O     28     -0.383     15.999   ;
    29      CG331      1    LIG    C20     29     -0.094     12.011   ;
    30     CG2R61      1    LIG    C21     30     -0.004     12.011   ;
    31     CG2R61      1    LIG    C22     31     -0.181     12.011   ;
    32     CG2R61      1    LIG    C23     32     -0.105     12.011   ;
    33     CG2R61      1    LIG    C24     33     -0.116     12.011   ;
    34     CG2R61      1    LIG    C25     34     -0.105     12.011   ;
    35     CG2R61      1    LIG    C26     35     -0.181     12.011   ;
    36       HGA1      1    LIG     HC     36      0.090      1.008   ;
    37       HGP2      1    LIG    HN2     37      0.335      1.008   ;
    38       HGA2      1    LIG    HC2     38      0.090      1.008   ;
    39       HGA2      1    LIG    HC3     39      0.090      1.008   ;
    40       HGA2      1    LIG    HC4     40      0.090      1.008   ;
    41       HGA2      1    LIG    HC5     41      0.090      1.008   ;
    42       HGA2      1    LIG    HC6     42      0.090      1.008   ;
    43       HGA2      1    LIG    HC7     43      0.090      1.008   ;
    44      HGR61      1    LIG    HC1     44      0.116      1.008   ;
    45      HGR61      1    LIG    HC8     45      0.116      1.008   ;
    46      HGR61      1    LIG    HC9     46      0.116      1.008   ;
    47      HGR61      1    LIG   HC10     47      0.116      1.008   ;
    48       HGA2      1    LIG   HC11     48      0.090      1.008   ;
    49       HGA2      1    LIG   HC12     49      0.090      1.008   ;
    50      HGR61      1    LIG   HC13     50      0.116      1.008   ;
    51      HGR61      1    LIG   HC14     51      0.116      1.008   ;
    52      HGR61      1    LIG   HC15     52      0.116      1.008   ;
    53      HGR61      1    LIG   HC16     53      0.116      1.008   ;
    54       HGA3      1    LIG   HC17     54      0.090      1.008   ;
    55       HGA3      1    LIG   HC18     55      0.090      1.008   ;
    56       HGA3      1    LIG   HC19     56      0.090      1.008   ;
    57      HGR61      1    LIG   HC20     57      0.116      1.008   ;
    58      HGR61      1    LIG   HC21     58      0.116      1.008   ;
    59      HGR61      1    LIG   HC22     59      0.116      1.008   ;
    60      HGR61      1    LIG   HC23     60      0.116      1.008   ;
    61      HGR61      1    LIG   HC24     61      0.116      1.008   ;
    62       HGA1      1    LIG    H31     62      0.137      1.008   ;

[ bonds ]
;	ai	  aj funct			  c0			c1			  c2			c3
    1     2	 1 ;      CG3C50     NG3C51
    1     5	 1 ;      CG3C50     CG3RC1
    1    30	 1 ;      CG3C50     CG2R61
    1    15	 1 ;      CG3C50     CG2R61
    2     3	 1 ;      NG3C51     CG3C51
    2    12	 1 ;      NG3C51       HGP1
    3    11	 1 ;      CG3C51      NG321
    3     4	 1 ;      CG3C51     NG3C51
    3    62	 1 ;      CG3C51       HGA1
    4    10	 1 ;      NG3C51      CG321
    4     5	 1 ;      NG3C51     CG3RC1
    5     6	 1 ;      CG3RC1      NG3P2
    5    36	 1 ;      CG3RC1       HGA1
    6     8	 1 ;       NG3P2      CG324
    6     7	 1 ;       NG3P2       HGP2
    6    37	 1 ;       NG3P2       HGP2
    8     9	 1 ;       CG324      CG321
    8    38	 1 ;       CG324       HGA2
    8    39	 1 ;       CG324       HGA2
    9    10	 1 ;       CG321      CG321
    9    40	 1 ;       CG321       HGA2
    9    41	 1 ;       CG321       HGA2
   10    42	 1 ;       CG321       HGA2
   10    43	 1 ;       CG321       HGA2
   11    14	 1 ;       NG321     HGPAM2
   11    13	 1 ;       NG321     HGPAM2
   15    20	 1 ;      CG2R61     CG2R61
   15    16	 1 ;      CG2R61     CG2R61
   16    17	 1 ;      CG2R61     CG2R61
   16    44	 1 ;      CG2R61      HGR61
   17    18	 1 ;      CG2R61     CG2R61
   17    21	 1 ;      CG2R61      CG321
   18    19	 1 ;      CG2R61     CG2R61
   18    45	 1 ;      CG2R61      HGR61
   19    20	 1 ;      CG2R61     CG2R61
   19    46	 1 ;      CG2R61      HGR61
   20    47	 1 ;      CG2R61      HGR61
   21    22	 1 ;       CG321     CG2R61
   21    48	 1 ;       CG321       HGA2
   21    49	 1 ;       CG321       HGA2
   22    27	 1 ;      CG2R61     CG2R61
   22    23	 1 ;      CG2R61     CG2R61
   23    24	 1 ;      CG2R61     CG2R61
   23    50	 1 ;      CG2R61      HGR61
   24    25	 1 ;      CG2R61     CG2R61
   24    51	 1 ;      CG2R61      HGR61
   25    28	 1 ;      CG2R61      OG301
   25    26	 1 ;      CG2R61     CG2R61
   26    27	 1 ;      CG2R61     CG2R61
   26    52	 1 ;      CG2R61      HGR61
   27    53	 1 ;      CG2R61      HGR61
   28    29	 1 ;       OG301      CG331
   29    54	 1 ;       CG331       HGA3
   29    55	 1 ;       CG331       HGA3
   29    56	 1 ;       CG331       HGA3
   30    35	 1 ;      CG2R61     CG2R61
   30    31	 1 ;      CG2R61     CG2R61
   31    32	 1 ;      CG2R61     CG2R61
   31    57	 1 ;      CG2R61      HGR61
   32    33	 1 ;      CG2R61     CG2R61
   32    58	 1 ;      CG2R61      HGR61
   33    34	 1 ;      CG2R61     CG2R61
   33    59	 1 ;      CG2R61      HGR61
   34    35	 1 ;      CG2R61     CG2R61
   34    60	 1 ;      CG2R61      HGR61
   35    61	 1 ;      CG2R61      HGR61

[ pairs ]
;	ai	  aj funct			  c0			c1			  c2			c3
    1    11	 1
    1    62	 1
    1    10	 1
    1     8	 1
    1     7	 1
    1    37	 1
    1    19	 1
    1    47	 1
    1    17	 1
    1    44	 1
    1    34	 1
    1    61	 1
    1    32	 1
    1    57	 1
    2     6	 1
    2    36	 1
    2    35	 1
    2    31	 1
    2    20	 1
    2    16	 1
    2    14	 1
    2    13	 1
    2    10	 1
    3    30	 1
    3    15	 1
    3     9	 1
    3    42	 1
    3    43	 1
    3     6	 1
    3    36	 1
    4    30	 1
    4    15	 1
    4    12	 1
    4    14	 1
    4    13	 1
    4     8	 1
    4     7	 1
    4    37	 1
    4    40	 1
    4    41	 1
    5    12	 1
    5    35	 1
    5    31	 1
    5    20	 1
    5    16	 1
    5    11	 1
    5    62	 1
    5     9	 1
    5    42	 1
    5    43	 1
    5    38	 1
    5    39	 1
    6    30	 1
    6    15	 1
    6    10	 1
    6    40	 1
    6    41	 1
    7    36	 1
    7     9	 1
    7    38	 1
    7    39	 1
    8    36	 1
    8    42	 1
    8    43	 1
    9    37	 1
   10    11	 1
   10    62	 1
   10    36	 1
   10    38	 1
   10    39	 1
   11    12	 1
   12    30	 1
   12    15	 1
   12    62	 1
   13    62	 1
   14    62	 1
   15    36	 1
   15    35	 1
   15    31	 1
   15    18	 1
   15    21	 1
   15    46	 1
   16    30	 1
   16    19	 1
   16    47	 1
   16    45	 1
   16    22	 1
   16    48	 1
   16    49	 1
   17    20	 1
   17    46	 1
   17    27	 1
   17    23	 1
   18    44	 1
   18    22	 1
   18    48	 1
   18    49	 1
   18    47	 1
   19    21	 1
   20    30	 1
   20    44	 1
   20    45	 1
   21    44	 1
   21    45	 1
   21    26	 1
   21    53	 1
   21    24	 1
   21    50	 1
   22    25	 1
   22    51	 1
   22    52	 1
   23    48	 1
   23    49	 1
   23    26	 1
   23    53	 1
   23    28	 1
   24    27	 1
   24    29	 1
   24    52	 1
   25    50	 1
   25    53	 1
   25    54	 1
   25    55	 1
   25    56	 1
   26    51	 1
   26    29	 1
   27    48	 1
   27    49	 1
   27    50	 1
   27    28	 1
   28    51	 1
   28    52	 1
   30    36	 1
   30    33	 1
   30    58	 1
   30    60	 1
   31    34	 1
   31    61	 1
   31    59	 1
   32    35	 1
   32    60	 1
   33    57	 1
   33    61	 1
   34    58	 1
   35    57	 1
   35    59	 1
   36    37	 1
   37    38	 1
   37    39	 1
   38    40	 1
   38    41	 1
   39    40	 1
   39    41	 1
   40    42	 1
   40    43	 1
   41    42	 1
   41    43	 1
   45    46	 1
   46    47	 1
   50    51	 1
   52    53	 1
   57    58	 1
   58    59	 1
   59    60	 1
   60    61	 1

[ angles ]
;	ai	  aj	ak funct			c0			  c1			c2			  c3
    2     1     5	5 ;     NG3C51     CG3C50     CG3RC1
    2     1    30	5 ;     NG3C51     CG3C50     CG2R61
    2     1    15	5 ;     NG3C51     CG3C50     CG2R61
    5     1    30	5 ;     CG3RC1     CG3C50     CG2R61
    5     1    15	5 ;     CG3RC1     CG3C50     CG2R61
   30     1    15	5 ;     CG2R61     CG3C50     CG2R61
    3     2    12	5 ;     CG3C51     NG3C51       HGP1
    3     2     1	5 ;     CG3C51     NG3C51     CG3C50
   12     2     1	5 ;       HGP1     NG3C51     CG3C50
   11     3     4	5 ;      NG321     CG3C51     NG3C51
   11     3     2	5 ;      NG321     CG3C51     NG3C51
   11     3    62	5 ;      NG321     CG3C51       HGA1
    4     3     2	5 ;     NG3C51     CG3C51     NG3C51
    4     3    62	5 ;     NG3C51     CG3C51       HGA1
    2     3    62	5 ;     NG3C51     CG3C51       HGA1
    3     4    10	5 ;     CG3C51     NG3C51      CG321
    3     4     5	5 ;     CG3C51     NG3C51     CG3RC1
   10     4     5	5 ;      CG321     NG3C51     CG3RC1
    4     5     6	5 ;     NG3C51     CG3RC1      NG3P2
    4     5     1	5 ;     NG3C51     CG3RC1     CG3C50
    4     5    36	5 ;     NG3C51     CG3RC1       HGA1
    6     5     1	5 ;      NG3P2     CG3RC1     CG3C50
    6     5    36	5 ;      NG3P2     CG3RC1       HGA1
    1     5    36	5 ;     CG3C50     CG3RC1       HGA1
    5     6     8	5 ;     CG3RC1      NG3P2      CG324
    5     6     7	5 ;     CG3RC1      NG3P2       HGP2
    5     6    37	5 ;     CG3RC1      NG3P2       HGP2
    8     6     7	5 ;      CG324      NG3P2       HGP2
    8     6    37	5 ;      CG324      NG3P2       HGP2
    7     6    37	5 ;       HGP2      NG3P2       HGP2
    9     8     6	5 ;      CG321      CG324      NG3P2
    9     8    38	5 ;      CG321      CG324       HGA2
    9     8    39	5 ;      CG321      CG324       HGA2
    6     8    38	5 ;      NG3P2      CG324       HGA2
    6     8    39	5 ;      NG3P2      CG324       HGA2
   38     8    39	5 ;       HGA2      CG324       HGA2
   10     9     8	5 ;      CG321      CG321      CG324
   10     9    40	5 ;      CG321      CG321       HGA2
   10     9    41	5 ;      CG321      CG321       HGA2
    8     9    40	5 ;      CG324      CG321       HGA2
    8     9    41	5 ;      CG324      CG321       HGA2
   40     9    41	5 ;       HGA2      CG321       HGA2
    4    10     9	5 ;     NG3C51      CG321      CG321
    4    10    42	5 ;     NG3C51      CG321       HGA2
    4    10    43	5 ;     NG3C51      CG321       HGA2
    9    10    42	5 ;      CG321      CG321       HGA2
    9    10    43	5 ;      CG321      CG321       HGA2
   42    10    43	5 ;       HGA2      CG321       HGA2
   14    11    13	5 ;     HGPAM2      NG321     HGPAM2
   14    11     3	5 ;     HGPAM2      NG321     CG3C51
   13    11     3	5 ;     HGPAM2      NG321     CG3C51
    1    15    20	5 ;     CG3C50     CG2R61     CG2R61
    1    15    16	5 ;     CG3C50     CG2R61     CG2R61
   20    15    16	5 ;     CG2R61     CG2R61     CG2R61
   15    16    17	5 ;     CG2R61     CG2R61     CG2R61
   15    16    44	5 ;     CG2R61     CG2R61      HGR61
   17    16    44	5 ;     CG2R61     CG2R61      HGR61
   16    17    18	5 ;     CG2R61     CG2R61     CG2R61
   16    17    21	5 ;     CG2R61     CG2R61      CG321
   18    17    21	5 ;     CG2R61     CG2R61      CG321
   19    18    17	5 ;     CG2R61     CG2R61     CG2R61
   19    18    45	5 ;     CG2R61     CG2R61      HGR61
   17    18    45	5 ;     CG2R61     CG2R61      HGR61
   20    19    18	5 ;     CG2R61     CG2R61     CG2R61
   20    19    46	5 ;     CG2R61     CG2R61      HGR61
   18    19    46	5 ;     CG2R61     CG2R61      HGR61
   15    20    19	5 ;     CG2R61     CG2R61     CG2R61
   15    20    47	5 ;     CG2R61     CG2R61      HGR61
   19    20    47	5 ;     CG2R61     CG2R61      HGR61
   17    21    22	5 ;     CG2R61      CG321     CG2R61
   17    21    48	5 ;     CG2R61      CG321       HGA2
   17    21    49	5 ;     CG2R61      CG321       HGA2
   22    21    48	5 ;     CG2R61      CG321       HGA2
   22    21    49	5 ;     CG2R61      CG321       HGA2
   48    21    49	5 ;       HGA2      CG321       HGA2
   27    22    23	5 ;     CG2R61     CG2R61     CG2R61
   27    22    21	5 ;     CG2R61     CG2R61      CG321
   23    22    21	5 ;     CG2R61     CG2R61      CG321
   24    23    22	5 ;     CG2R61     CG2R61     CG2R61
   24    23    50	5 ;     CG2R61     CG2R61      HGR61
   22    23    50	5 ;     CG2R61     CG2R61      HGR61
   25    24    23	5 ;     CG2R61     CG2R61     CG2R61
   25    24    51	5 ;     CG2R61     CG2R61      HGR61
   23    24    51	5 ;     CG2R61     CG2R61      HGR61
   28    25    26	5 ;      OG301     CG2R61     CG2R61
   28    25    24	5 ;      OG301     CG2R61     CG2R61
   26    25    24	5 ;     CG2R61     CG2R61     CG2R61
   25    26    27	5 ;     CG2R61     CG2R61     CG2R61
   25    26    52	5 ;     CG2R61     CG2R61      HGR61
   27    26    52	5 ;     CG2R61     CG2R61      HGR61
   26    27    22	5 ;     CG2R61     CG2R61     CG2R61
   26    27    53	5 ;     CG2R61     CG2R61      HGR61
   22    27    53	5 ;     CG2R61     CG2R61      HGR61
   29    28    25	5 ;      CG331      OG301     CG2R61
   28    29    54	5 ;      OG301      CG331       HGA3
   28    29    55	5 ;      OG301      CG331       HGA3
   28    29    56	5 ;      OG301      CG331       HGA3
   54    29    55	5 ;       HGA3      CG331       HGA3
   54    29    56	5 ;       HGA3      CG331       HGA3
   55    29    56	5 ;       HGA3      CG331       HGA3
   35    30     1	5 ;     CG2R61     CG2R61     CG3C50
   35    30    31	5 ;     CG2R61     CG2R61     CG2R61
    1    30    31	5 ;     CG3C50     CG2R61     CG2R61
   30    31    32	5 ;     CG2R61     CG2R61     CG2R61
   30    31    57	5 ;     CG2R61     CG2R61      HGR61
   32    31    57	5 ;     CG2R61     CG2R61      HGR61
   33    32    31	5 ;     CG2R61     CG2R61     CG2R61
   33    32    58	5 ;     CG2R61     CG2R61      HGR61
   31    32    58	5 ;     CG2R61     CG2R61      HGR61
   34    33    32	5 ;     CG2R61     CG2R61     CG2R61
   34    33    59	5 ;     CG2R61     CG2R61      HGR61
   32    33    59	5 ;     CG2R61     CG2R61      HGR61
   35    34    33	5 ;     CG2R61     CG2R61     CG2R61
   35    34    60	5 ;     CG2R61     CG2R61      HGR61
   33    34    60	5 ;     CG2R61     CG2R61      HGR61
   34    35    30	5 ;     CG2R61     CG2R61     CG2R61
   34    35    61	5 ;     CG2R61     CG2R61      HGR61
   30    35    61	5 ;     CG2R61     CG2R61      HGR61

[ dihedrals ]
;	ai	  aj	ak	  al funct			  c0			c1			  c2			c3			  c4			c5
    5     1     2     3	 9 ;     CG3RC1     CG3C50     NG3C51     CG3C51
    5     1     2    12	 9 ;     CG3RC1     CG3C50     NG3C51       HGP1
   30     1     2     3	 9 ;     CG2R61     CG3C50     NG3C51     CG3C51
   30     1     2    12	 9 ;     CG2R61     CG3C50     NG3C51       HGP1
   15     1     2     3	 9 ;     CG2R61     CG3C50     NG3C51     CG3C51
   15     1     2    12	 9 ;     CG2R61     CG3C50     NG3C51       HGP1
    2     1     5     4	 9 ;     NG3C51     CG3C50     CG3RC1     NG3C51
    2     1     5     6	 9 ;     NG3C51     CG3C50     CG3RC1      NG3P2
    2     1     5    36	 9 ;     NG3C51     CG3C50     CG3RC1       HGA1
   30     1     5     4	 9 ;     CG2R61     CG3C50     CG3RC1     NG3C51
   30     1     5     6	 9 ;     CG2R61     CG3C50     CG3RC1      NG3P2
   30     1     5    36	 9 ;     CG2R61     CG3C50     CG3RC1       HGA1
   15     1     5     4	 9 ;     CG2R61     CG3C50     CG3RC1     NG3C51
   15     1     5     6	 9 ;     CG2R61     CG3C50     CG3RC1      NG3P2
   15     1     5    36	 9 ;     CG2R61     CG3C50     CG3RC1       HGA1
    2     1    30    35	 9 ;     NG3C51     CG3C50     CG2R61     CG2R61
    2     1    30    31	 9 ;     NG3C51     CG3C50     CG2R61     CG2R61
    5     1    30    35	 9 ;     CG3RC1     CG3C50     CG2R61     CG2R61
    5     1    30    31	 9 ;     CG3RC1     CG3C50     CG2R61     CG2R61
   15     1    30    35	 9 ;     CG2R61     CG3C50     CG2R61     CG2R61
   15     1    30    31	 9 ;     CG2R61     CG3C50     CG2R61     CG2R61
    2     1    15    20	 9 ;     NG3C51     CG3C50     CG2R61     CG2R61
    2     1    15    16	 9 ;     NG3C51     CG3C50     CG2R61     CG2R61
    5     1    15    20	 9 ;     CG3RC1     CG3C50     CG2R61     CG2R61
    5     1    15    16	 9 ;     CG3RC1     CG3C50     CG2R61     CG2R61
   30     1    15    20	 9 ;     CG2R61     CG3C50     CG2R61     CG2R61
   30     1    15    16	 9 ;     CG2R61     CG3C50     CG2R61     CG2R61
   12     2     3    11	 9 ;       HGP1     NG3C51     CG3C51      NG321
   12     2     3     4	 9 ;       HGP1     NG3C51     CG3C51     NG3C51
   12     2     3    62	 9 ;       HGP1     NG3C51     CG3C51       HGA1
    1     2     3    11	 9 ;     CG3C50     NG3C51     CG3C51      NG321
    1     2     3     4	 9 ;     CG3C50     NG3C51     CG3C51     NG3C51
    1     2     3    62	 9 ;     CG3C50     NG3C51     CG3C51       HGA1
    4     3    11    14	 9 ;     NG3C51     CG3C51      NG321     HGPAM2
    4     3    11    13	 9 ;     NG3C51     CG3C51      NG321     HGPAM2
    2     3    11    14	 9 ;     NG3C51     CG3C51      NG321     HGPAM2
    2     3    11    13	 9 ;     NG3C51     CG3C51      NG321     HGPAM2
   62     3    11    14	 9 ;       HGA1     CG3C51      NG321     HGPAM2
   62     3    11    13	 9 ;       HGA1     CG3C51      NG321     HGPAM2
   11     3     4    10	 9 ;      NG321     CG3C51     NG3C51      CG321
   11     3     4     5	 9 ;      NG321     CG3C51     NG3C51     CG3RC1
    2     3     4    10	 9 ;     NG3C51     CG3C51     NG3C51      CG321
    2     3     4     5	 9 ;     NG3C51     CG3C51     NG3C51     CG3RC1
   62     3     4    10	 9 ;       HGA1     CG3C51     NG3C51      CG321
   62     3     4     5	 9 ;       HGA1     CG3C51     NG3C51     CG3RC1
    3     4    10     9	 9 ;     CG3C51     NG3C51      CG321      CG321
    3     4    10    42	 9 ;     CG3C51     NG3C51      CG321       HGA2
    3     4    10    43	 9 ;     CG3C51     NG3C51      CG321       HGA2
    5     4    10     9	 9 ;     CG3RC1     NG3C51      CG321      CG321
    5     4    10    42	 9 ;     CG3RC1     NG3C51      CG321       HGA2
    5     4    10    43	 9 ;     CG3RC1     NG3C51      CG321       HGA2
    3     4     5     6	 9 ;     CG3C51     NG3C51     CG3RC1      NG3P2
    3     4     5     1	 9 ;     CG3C51     NG3C51     CG3RC1     CG3C50
    3     4     5    36	 9 ;     CG3C51     NG3C51     CG3RC1       HGA1
   10     4     5     6	 9 ;      CG321     NG3C51     CG3RC1      NG3P2
   10     4     5     1	 9 ;      CG321     NG3C51     CG3RC1     CG3C50
   10     4     5    36	 9 ;      CG321     NG3C51     CG3RC1       HGA1
    4     5     6     8	 9 ;     NG3C51     CG3RC1      NG3P2      CG324
    4     5     6     7	 9 ;     NG3C51     CG3RC1      NG3P2       HGP2
    4     5     6    37	 9 ;     NG3C51     CG3RC1      NG3P2       HGP2
    1     5     6     8	 9 ;     CG3C50     CG3RC1      NG3P2      CG324
    1     5     6     7	 9 ;     CG3C50     CG3RC1      NG3P2       HGP2
    1     5     6    37	 9 ;     CG3C50     CG3RC1      NG3P2       HGP2
   36     5     6     8	 9 ;       HGA1     CG3RC1      NG3P2      CG324
   36     5     6     7	 9 ;       HGA1     CG3RC1      NG3P2       HGP2
   36     5     6    37	 9 ;       HGA1     CG3RC1      NG3P2       HGP2
    5     6     8     9	 9 ;     CG3RC1      NG3P2      CG324      CG321
    5     6     8    38	 9 ;     CG3RC1      NG3P2      CG324       HGA2
    5     6     8    39	 9 ;     CG3RC1      NG3P2      CG324       HGA2
    7     6     8     9	 9 ;       HGP2      NG3P2      CG324      CG321
    7     6     8    38	 9 ;       HGP2      NG3P2      CG324       HGA2
    7     6     8    39	 9 ;       HGP2      NG3P2      CG324       HGA2
   37     6     8     9	 9 ;       HGP2      NG3P2      CG324      CG321
   37     6     8    38	 9 ;       HGP2      NG3P2      CG324       HGA2
   37     6     8    39	 9 ;       HGP2      NG3P2      CG324       HGA2
    6     8     9    10	 9 ;      NG3P2      CG324      CG321      CG321
    6     8     9    40	 9 ;      NG3P2      CG324      CG321       HGA2
    6     8     9    41	 9 ;      NG3P2      CG324      CG321       HGA2
   38     8     9    10	 9 ;       HGA2      CG324      CG321      CG321
   38     8     9    40	 9 ;       HGA2      CG324      CG321       HGA2
   38     8     9    41	 9 ;       HGA2      CG324      CG321       HGA2
   39     8     9    10	 9 ;       HGA2      CG324      CG321      CG321
   39     8     9    40	 9 ;       HGA2      CG324      CG321       HGA2
   39     8     9    41	 9 ;       HGA2      CG324      CG321       HGA2
    8     9    10     4	 9 ;      CG324      CG321      CG321     NG3C51
    8     9    10    42	 9 ;      CG324      CG321      CG321       HGA2
    8     9    10    43	 9 ;      CG324      CG321      CG321       HGA2
   40     9    10     4	 9 ;       HGA2      CG321      CG321     NG3C51
   40     9    10    42	 9 ;       HGA2      CG321      CG321       HGA2
   40     9    10    43	 9 ;       HGA2      CG321      CG321       HGA2
   41     9    10     4	 9 ;       HGA2      CG321      CG321     NG3C51
   41     9    10    42	 9 ;       HGA2      CG321      CG321       HGA2
   41     9    10    43	 9 ;       HGA2      CG321      CG321       HGA2
    1    15    20    19	 9 ;     CG3C50     CG2R61     CG2R61     CG2R61
    1    15    20    47	 9 ;     CG3C50     CG2R61     CG2R61      HGR61
   16    15    20    19	 9 ;     CG2R61     CG2R61     CG2R61     CG2R61
   16    15    20    47	 9 ;     CG2R61     CG2R61     CG2R61      HGR61
    1    15    16    17	 9 ;     CG3C50     CG2R61     CG2R61     CG2R61
    1    15    16    44	 9 ;     CG3C50     CG2R61     CG2R61      HGR61
   20    15    16    17	 9 ;     CG2R61     CG2R61     CG2R61     CG2R61
   20    15    16    44	 9 ;     CG2R61     CG2R61     CG2R61      HGR61
   15    16    17    18	 9 ;     CG2R61     CG2R61     CG2R61     CG2R61
   15    16    17    21	 9 ;     CG2R61     CG2R61     CG2R61      CG321
   44    16    17    18	 9 ;      HGR61     CG2R61     CG2R61     CG2R61
   44    16    17    21	 9 ;      HGR61     CG2R61     CG2R61      CG321
   16    17    18    19	 9 ;     CG2R61     CG2R61     CG2R61     CG2R61
   16    17    18    45	 9 ;     CG2R61     CG2R61     CG2R61      HGR61
   21    17    18    19	 9 ;      CG321     CG2R61     CG2R61     CG2R61
   21    17    18    45	 9 ;      CG321     CG2R61     CG2R61      HGR61
   16    17    21    22	 9 ;     CG2R61     CG2R61      CG321     CG2R61
   16    17    21    48	 9 ;     CG2R61     CG2R61      CG321       HGA2
   16    17    21    49	 9 ;     CG2R61     CG2R61      CG321       HGA2
   18    17    21    22	 9 ;     CG2R61     CG2R61      CG321     CG2R61
   18    17    21    48	 9 ;     CG2R61     CG2R61      CG321       HGA2
   18    17    21    49	 9 ;     CG2R61     CG2R61      CG321       HGA2
   17    18    19    20	 9 ;     CG2R61     CG2R61     CG2R61     CG2R61
   17    18    19    46	 9 ;     CG2R61     CG2R61     CG2R61      HGR61
   45    18    19    20	 9 ;      HGR61     CG2R61     CG2R61     CG2R61
   45    18    19    46	 9 ;      HGR61     CG2R61     CG2R61      HGR61
   18    19    20    15	 9 ;     CG2R61     CG2R61     CG2R61     CG2R61
   18    19    20    47	 9 ;     CG2R61     CG2R61     CG2R61      HGR61
   46    19    20    15	 9 ;      HGR61     CG2R61     CG2R61     CG2R61
   46    19    20    47	 9 ;      HGR61     CG2R61     CG2R61      HGR61
   17    21    22    27	 9 ;     CG2R61      CG321     CG2R61     CG2R61
   17    21    22    23	 9 ;     CG2R61      CG321     CG2R61     CG2R61
   48    21    22    27	 9 ;       HGA2      CG321     CG2R61     CG2R61
   48    21    22    23	 9 ;       HGA2      CG321     CG2R61     CG2R61
   49    21    22    27	 9 ;       HGA2      CG321     CG2R61     CG2R61
   49    21    22    23	 9 ;       HGA2      CG321     CG2R61     CG2R61
   23    22    27    26	 9 ;     CG2R61     CG2R61     CG2R61     CG2R61
   23    22    27    53	 9 ;     CG2R61     CG2R61     CG2R61      HGR61
   21    22    27    26	 9 ;      CG321     CG2R61     CG2R61     CG2R61
   21    22    27    53	 9 ;      CG321     CG2R61     CG2R61      HGR61
   27    22    23    24	 9 ;     CG2R61     CG2R61     CG2R61     CG2R61
   27    22    23    50	 9 ;     CG2R61     CG2R61     CG2R61      HGR61
   21    22    23    24	 9 ;      CG321     CG2R61     CG2R61     CG2R61
   21    22    23    50	 9 ;      CG321     CG2R61     CG2R61      HGR61
   22    23    24    25	 9 ;     CG2R61     CG2R61     CG2R61     CG2R61
   22    23    24    51	 9 ;     CG2R61     CG2R61     CG2R61      HGR61
   50    23    24    25	 9 ;      HGR61     CG2R61     CG2R61     CG2R61
   50    23    24    51	 9 ;      HGR61     CG2R61     CG2R61      HGR61
   23    24    25    28	 9 ;     CG2R61     CG2R61     CG2R61      OG301
   23    24    25    26	 9 ;     CG2R61     CG2R61     CG2R61     CG2R61
   51    24    25    28	 9 ;      HGR61     CG2R61     CG2R61      OG301
   51    24    25    26	 9 ;      HGR61     CG2R61     CG2R61     CG2R61
   26    25    28    29	 9 ;     CG2R61     CG2R61      OG301      CG331
   24    25    28    29	 9 ;     CG2R61     CG2R61      OG301      CG331
   28    25    26    27	 9 ;      OG301     CG2R61     CG2R61     CG2R61
   28    25    26    52	 9 ;      OG301     CG2R61     CG2R61      HGR61
   24    25    26    27	 9 ;     CG2R61     CG2R61     CG2R61     CG2R61
   24    25    26    52	 9 ;     CG2R61     CG2R61     CG2R61      HGR61
   25    26    27    22	 9 ;     CG2R61     CG2R61     CG2R61     CG2R61
   25    26    27    53	 9 ;     CG2R61     CG2R61     CG2R61      HGR61
   52    26    27    22	 9 ;      HGR61     CG2R61     CG2R61     CG2R61
   52    26    27    53	 9 ;      HGR61     CG2R61     CG2R61      HGR61
   25    28    29    54	 9 ;     CG2R61      OG301      CG331       HGA3
   25    28    29    55	 9 ;     CG2R61      OG301      CG331       HGA3
   25    28    29    56	 9 ;     CG2R61      OG301      CG331       HGA3
    1    30    35    34	 9 ;     CG3C50     CG2R61     CG2R61     CG2R61
    1    30    35    61	 9 ;     CG3C50     CG2R61     CG2R61      HGR61
   31    30    35    34	 9 ;     CG2R61     CG2R61     CG2R61     CG2R61
   31    30    35    61	 9 ;     CG2R61     CG2R61     CG2R61      HGR61
   35    30    31    32	 9 ;     CG2R61     CG2R61     CG2R61     CG2R61
   35    30    31    57	 9 ;     CG2R61     CG2R61     CG2R61      HGR61
    1    30    31    32	 9 ;     CG3C50     CG2R61     CG2R61     CG2R61
    1    30    31    57	 9 ;     CG3C50     CG2R61     CG2R61      HGR61
   30    31    32    33	 9 ;     CG2R61     CG2R61     CG2R61     CG2R61
   30    31    32    58	 9 ;     CG2R61     CG2R61     CG2R61      HGR61
   57    31    32    33	 9 ;      HGR61     CG2R61     CG2R61     CG2R61
   57    31    32    58	 9 ;      HGR61     CG2R61     CG2R61      HGR61
   31    32    33    34	 9 ;     CG2R61     CG2R61     CG2R61     CG2R61
   31    32    33    59	 9 ;     CG2R61     CG2R61     CG2R61      HGR61
   58    32    33    34	 9 ;      HGR61     CG2R61     CG2R61     CG2R61
   58    32    33    59	 9 ;      HGR61     CG2R61     CG2R61      HGR61
   32    33    34    35	 9 ;     CG2R61     CG2R61     CG2R61     CG2R61
   32    33    34    60	 9 ;     CG2R61     CG2R61     CG2R61      HGR61
   59    33    34    35	 9 ;      HGR61     CG2R61     CG2R61     CG2R61
   59    33    34    60	 9 ;      HGR61     CG2R61     CG2R61      HGR61
   33    34    35    30	 9 ;     CG2R61     CG2R61     CG2R61     CG2R61
   33    34    35    61	 9 ;     CG2R61     CG2R61     CG2R61      HGR61
   60    34    35    30	 9 ;      HGR61     CG2R61     CG2R61     CG2R61
   60    34    35    61	 9 ;      HGR61     CG2R61     CG2R61      HGR61

