GROningen MAchine for Chemical Simulation
   62
    1LIG     C1    1  -1.286   0.287  -1.597
    1LIG     N1    2  -1.230   0.279  -1.736
    1LIG     C2    3  -1.196   0.404  -1.781
    1LIG     N2    4  -1.200   0.495  -1.683
    1LIG     C3    5  -1.232   0.430  -1.562
    1LIG     N3    6  -1.229   0.483  -1.445
    1LIG     HN    7  -1.243   0.428  -1.361
    1LIG     C4    8  -1.204   0.626  -1.438
    1LIG     C5    9  -1.266   0.695  -1.559
    1LIG     C6   10  -1.195   0.642  -1.684
    1LIG     N4   11  -1.165   0.429  -1.908
    1LIG     H1   12  -1.234   0.198  -1.796
    1LIG     H2   13  -1.166   0.357  -1.979
    1LIG     H3   14  -1.139   0.523  -1.937
    1LIG     C7   15  -1.440   0.296  -1.612
    1LIG     C8   16  -1.519   0.387  -1.540
    1LIG     C9   17  -1.659   0.385  -1.551
    1LIG    C10   18  -1.720   0.291  -1.636
    1LIG    C11   19  -1.644   0.201  -1.708
    1LIG    C12   20  -1.506   0.205  -1.697
    1LIG    C13   21  -1.747   0.481  -1.473
    1LIG    C14   22  -1.763   0.618  -1.537
    1LIG    C15   23  -1.864   0.641  -1.630
    1LIG    C16   24  -1.882   0.768  -1.687
    1LIG    C17   25  -1.798   0.874  -1.651
    1LIG    C18   26  -1.698   0.851  -1.556
    1LIG    C19   27  -1.681   0.725  -1.499
    1LIG      O   28  -1.803   1.001  -1.699
    1LIG    C20   29  -1.683   1.077  -1.694
    1LIG    C21   30  -1.237   0.185  -1.497
    1LIG    C22   31  -1.284   0.173  -1.366
    1LIG    C23   32  -1.238   0.068  -1.285
    1LIG    C24   33  -1.147  -0.026  -1.333
    1LIG    C25   34  -1.099  -0.015  -1.462
    1LIG    C26   35  -1.141   0.090  -1.541
    1LIG     HC   36  -1.130   0.392  -1.551
    1LIG    HN2   37  -1.328   0.501  -1.450
    1LIG    HC2   38  -1.249   0.666  -1.347
    1LIG    HC3   39  -1.097   0.645  -1.436
    1LIG    HC4   40  -1.252   0.802  -1.552
    1LIG    HC5   41  -1.372   0.671  -1.565
    1LIG    HC6   42  -1.245   0.679  -1.774
    1LIG    HC7   43  -1.091   0.675  -1.684
    1LIG    HC1   44  -1.471   0.460  -1.476
    1LIG    HC8   45  -1.828   0.289  -1.644
    1LIG    HC9   46  -1.692   0.129  -1.773
    1LIG   HC10   47  -1.447   0.136  -1.756
    1LIG   HC11   48  -1.703   0.494  -1.374
    1LIG   HC12   49  -1.846   0.436  -1.462
    1LIG   HC13   50  -1.930   0.560  -1.659
    1LIG   HC14   51  -1.960   0.784  -1.759
    1LIG   HC15   52  -1.634   0.933  -1.526
    1LIG   HC16   53  -1.605   0.710  -1.424
    1LIG   HC17   54  -1.694   1.166  -1.756
    1LIG   HC18   55  -1.601   1.017  -1.731
    1LIG   HC19   56  -1.663   1.107  -1.591
    1LIG   HC20   57  -1.355   0.243  -1.327
    1LIG   HC21   58  -1.274   0.060  -1.183
    1LIG   HC22   59  -1.114  -0.108  -1.270
    1LIG   HC23   60  -1.029  -0.088  -1.501
    1LIG   HC24   61  -1.100   0.101  -1.641
    1LIG    H31   62  -1.091   0.384  -1.758
   0.00000   0.00000   0.00000
