GRoups of Organic Molecules in ACtion for Science
   64
    1LIG     C1    1  -1.166   0.536  -1.551
    1LIG     C2    2  -1.254   0.632  -1.635
    1LIG     N1    3  -1.369   0.554  -1.686
    1LIG     H1    4  -1.356   0.534  -1.786
    1LIG     H2    5  -1.360   0.460  -1.643
    1LIG     C3    6  -1.510   0.596  -1.669
    1LIG     C4    7  -1.566   0.672  -1.788
    1LIG     C5    8  -1.550   0.740  -1.655
    1LIG     C6    9  -1.591   0.486  -1.606
    1LIG     C7   10  -1.701   0.522  -1.525
    1LIG     C8   11  -1.804   0.434  -1.492
    1LIG     C9   12  -1.787   0.299  -1.529
    1LIG    C10   13  -1.674   0.258  -1.601
    1LIG    C11   14  -1.578   0.351  -1.641
    1LIG    C12   15  -1.935   0.484  -1.429
    1LIG    C13   16  -1.966   0.626  -1.482
    1LIG    C14   17  -2.051   0.389  -1.467
    1LIG    C15   18  -1.931   0.493  -1.275
    1LIG     F1   19  -1.829   0.575  -1.235
    1LIG     O1   20  -1.146   0.600  -1.424
    1LIG     H3   21  -1.105   0.536  -1.363
    1LIG    C16   22  -1.232   0.396  -1.531
    1LIG     N2   23  -1.149   0.294  -1.595
    1LIG    C17   24  -1.177   0.245  -1.721
    1LIG     O2   25  -1.264   0.292  -1.793
    1LIG    C18   26  -1.082   0.137  -1.764
    1LIG     H4   27  -1.090   0.236  -1.536
    1LIG    C19   28  -1.265   0.360  -1.384
    1LIG    C20   29  -1.248   0.213  -1.353
    1LIG    C21   30  -1.344   0.120  -1.394
    1LIG    C22   31  -1.334  -0.013  -1.354
    1LIG     F2   32  -1.430  -0.100  -1.391
    1LIG    C23   33  -1.230  -0.056  -1.273
    1LIG    C24   34  -1.132   0.035  -1.237
    1LIG    C25   35  -1.139   0.168  -1.277
    1LIG     F3   36  -1.031  -0.004  -1.158
    1LIG     HC   37  -1.069   0.523  -1.600
    1LIG    HC2   38  -1.196   0.671  -1.719
    1LIG    HC3   39  -1.289   0.714  -1.573
    1LIG    HC4   40  -1.501   0.700  -1.871
    1LIG    HC5   41  -1.668   0.647  -1.815
    1LIG    HC6   42  -1.638   0.766  -1.596
    1LIG    HC7   43  -1.467   0.811  -1.648
    1LIG    HC1   44  -1.705   0.623  -1.487
    1LIG    HC8   45  -1.862   0.227  -1.502
    1LIG    HC9   46  -1.661   0.153  -1.625
    1LIG   HC10   47  -1.493   0.318  -1.699
    1LIG   HC11   48  -1.915   0.393  -1.233
    1LIG   HC12   49  -2.026   0.533  -1.238
    1LIG   HC13   50  -1.327   0.399  -1.585
    1LIG   HC14   51  -1.368   0.388  -1.363
    1LIG   HC15   52  -1.199   0.417  -1.318
    1LIG   HC16   53  -1.426   0.151  -1.458
    1LIG   HC17   54  -1.225  -0.159  -1.240
    1LIG   HC18   55  -1.061   0.237  -1.249
    1LIG   HC19   56  -1.970   0.624  -1.591
    1LIG   HC20   57  -2.062   0.659  -1.443
    1LIG   HC21   58  -1.888   0.694  -1.449
    1LIG   HC22   59  -1.109   0.102  -1.864
    1LIG   HC23   60  -0.980   0.176  -1.766
    1LIG   HC24   61  -1.087   0.054  -1.694
    1LIG   HC25   62  -2.146   0.434  -1.438
    1LIG   HC26   63  -2.050   0.371  -1.574
    1LIG   HC27   64  -2.038   0.294  -1.415
   0.00000   0.00000   0.00000
