GROup of MAchos and Cynical Suckers
   76
    1LIG      S    1  -1.335   0.245  -2.252
    1LIG     O1    2  -1.398   0.196  -2.378
    1LIG     C1    3  -1.311   0.102  -2.142
    1LIG     C2    4  -1.228   0.140  -2.019
    1LIG     C3    5  -1.087   0.187  -2.059
    1LIG     C4    6  -1.080   0.307  -2.158
    1LIG     C5    7  -1.159   0.274  -2.286
    1LIG     C6    8  -1.296   0.240  -1.925
    1LIG     C7    9  -1.300   0.199  -1.781
    1LIG     C8   10  -1.376   0.274  -1.690
    1LIG     C9   11  -1.392   0.231  -1.559
    1LIG    C10   12  -1.320   0.119  -1.513
    1LIG    C11   13  -1.238   0.050  -1.604
    1LIG     F1   14  -1.168  -0.057  -1.562
    1LIG    C12   15  -1.232   0.086  -1.738
    1LIG     O2   16  -1.480   0.285  -1.468
    1LIG    C13   17  -1.592   0.364  -1.514
    1LIG    C14   18  -1.715   0.285  -1.562
    1LIG     F2   19  -1.690   0.154  -1.586
    1LIG     F3   20  -1.818   0.289  -1.475
    1LIG     F4   21  -1.759   0.337  -1.679
    1LIG    C15   22  -1.638   0.450  -1.395
    1LIG     O3   23  -1.698   0.572  -1.440
    1LIG    C16   24  -1.673   0.677  -1.347
    1LIG     N1   25  -1.311   0.091  -1.376
    1LIG     H1   26  -1.313  -0.008  -1.353
    1LIG     H2   27  -1.373   0.149  -1.319
    1LIG     O4   28  -1.017   0.080  -2.123
    1LIG     H3   29  -1.077   0.029  -2.182
    1LIG     N2   30  -1.125   0.440  -2.103
    1LIG     H4   31  -1.158   0.498  -2.182
    1LIG     H5   32  -1.210   0.433  -2.046
    1LIG    C17   33  -1.026   0.525  -2.030
    1LIG    C18   34  -1.072   0.544  -1.888
    1LIG    C19   35  -1.186   0.623  -1.862
    1LIG    C20   36  -1.242   0.632  -1.734
    1LIG    C21   37  -1.178   0.563  -1.630
    1LIG    C22   38  -1.064   0.485  -1.654
    1LIG    C23   39  -1.012   0.476  -1.782
    1LIG    C24   40  -1.367   0.720  -1.709
    1LIG    C25   41  -1.498   0.643  -1.741
    1LIG    C26   42  -1.378   0.764  -1.561
    1LIG    C27   43  -1.358   0.847  -1.796
    1LIG     O5   44  -1.321   0.962  -1.719
    1LIG     H6   45  -1.347   0.943  -1.627
    1LIG    HC2   46  -1.408   0.066  -2.110
    1LIG    HC3   47  -1.260   0.023  -2.197
    1LIG     HC   48  -1.214   0.048  -1.961
    1LIG    HC1   49  -1.032   0.215  -1.969
    1LIG    HC4   50  -0.976   0.319  -2.187
    1LIG    HC5   51  -1.149   0.357  -2.356
    1LIG    HC6   52  -1.116   0.184  -2.332
    1LIG    HC7   53  -1.399   0.254  -1.959
    1LIG    HC8   54  -1.244   0.336  -1.933
    1LIG    HC9   55  -1.423   0.366  -1.723
    1LIG   HC10   56  -1.176   0.026  -1.808
    1LIG   HC11   57  -1.558   0.430  -1.594
    1LIG   HC12   58  -1.552   0.474  -1.333
    1LIG   HC13   59  -1.711   0.394  -1.337
    1LIG   HC14   60  -1.018   0.623  -2.079
    1LIG   HC15   61  -0.929   0.476  -2.030
    1LIG   HC16   62  -1.231   0.677  -1.944
    1LIG   HC17   63  -1.218   0.569  -1.530
    1LIG   HC18   64  -1.017   0.432  -1.572
    1LIG   HC19   65  -0.924   0.415  -1.800
    1LIG   HC20   66  -1.284   0.832  -1.874
    1LIG   HC21   67  -1.455   0.865  -1.842
    1LIG   HC22   68  -1.397   0.677  -1.498
    1LIG   HC23   69  -1.461   0.835  -1.550
    1LIG   HC24   70  -1.285   0.812  -1.530
    1LIG   HC25   71  -1.719   0.769  -1.382
    1LIG   HC26   72  -1.565   0.692  -1.337
    1LIG   HC27   73  -1.715   0.650  -1.249
    1LIG   HC28   74  -1.496   0.609  -1.844
    1LIG   HC29   75  -1.583   0.710  -1.726
    1LIG   HC30   76  -1.507   0.557  -1.675
   0.00000   0.00000   0.00000
