Gallium Rubidium Oxygen Manganese Argon Carbon Silicon
   65
    1LIG     N1    1  -1.632   1.043  -1.692
    1LIG     C1    2  -1.682   0.982  -1.582
    1LIG     N2    3  -1.722   1.066  -1.483
    1LIG     N3    4  -1.693   0.851  -1.551
    1LIG     C2    5  -1.766   0.747  -1.619
    1LIG     O1    6  -1.804   0.765  -1.733
    1LIG     H1    7  -1.665   1.137  -1.705
    1LIG     H2    8  -1.769   1.033  -1.400
    1LIG     H3    9  -1.711   1.167  -1.491
    1LIG     H4   10  -1.671   0.830  -1.455
    1LIG     C3   11  -1.789   0.619  -1.535
    1LIG     N4   12  -1.771   0.493  -1.607
    1LIG     C4   13  -1.659   0.409  -1.612
    1LIG     C5   14  -1.528   0.416  -1.557
    1LIG     C6   15  -1.697   0.298  -1.689
    1LIG     C7   16  -1.440   0.305  -1.573
    1LIG     C8   17  -1.482   0.192  -1.643
    1LIG     C9   18  -1.608   0.189  -1.704
    1LIG    C10   19  -1.826   0.324  -1.743
    1LIG    C11   20  -1.866   0.447  -1.696
    1LIG    C12   21  -1.303   0.304  -1.506
    1LIG     N5   22  -1.288   0.239  -1.371
    1LIG    C13   23  -1.261   0.343  -1.267
    1LIG      S   24  -1.177   0.110  -1.362
    1LIG     O2   25  -1.042   0.166  -1.361
    1LIG     O3   26  -1.220   0.021  -1.255
    1LIG    C14   27  -1.204   0.022  -1.514
    1LIG    C15   28  -1.561   0.991  -1.810
    1LIG    C16   29  -1.468   0.872  -1.787
    1LIG    C17   30  -1.480   0.765  -1.876
    1LIG    C18   31  -1.401   0.649  -1.866
    1LIG    CL1   32  -1.429   0.525  -1.985
    1LIG    C19   33  -1.302   0.632  -1.767
    1LIG    C20   34  -1.288   0.739  -1.677
    1LIG    C21   35  -1.367   0.859  -1.689
    1LIG    CL2   36  -1.192   0.733  -1.533
    1LIG     N6   37  -1.231   0.507  -1.772
    1LIG    C22   38  -1.096   0.479  -1.776
    1LIG     O4   39  -1.004   0.560  -1.771
    1LIG    C23   40  -1.068   0.331  -1.797
    1LIG     H5   41  -1.290   0.428  -1.799
    1LIG    HC2   42  -1.719   0.621  -1.452
    1LIG    HC3   43  -1.890   0.622  -1.495
    1LIG     HC   44  -1.496   0.504  -1.504
    1LIG    HC1   45  -1.417   0.106  -1.651
    1LIG    HC4   46  -1.638   0.103  -1.761
    1LIG    HC5   47  -1.881   0.259  -1.808
    1LIG    HC6   48  -1.957   0.498  -1.723
    1LIG    HC7   49  -1.235   0.253  -1.574
    1LIG    HC8   50  -1.270   0.407  -1.497
    1LIG    HC9   51  -1.250   0.295  -1.170
    1LIG   HC10   52  -1.344   0.413  -1.263
    1LIG   HC11   53  -1.169   0.396  -1.291
    1LIG   HC12   54  -1.164  -0.079  -1.505
    1LIG   HC13   55  -1.154   0.073  -1.595
    1LIG   HC14   56  -1.311   0.017  -1.534
    1LIG   HC15   57  -1.501   1.072  -1.851
    1LIG   HC16   58  -1.635   0.962  -1.885
    1LIG   HC17   59  -1.553   0.771  -1.956
    1LIG   HC18   60  -1.349   0.941  -1.622
    1LIG   HC19   61  -0.960   0.315  -1.799
    1LIG   HC20   62  -1.112   0.298  -1.891
    1LIG   HC21   63  -1.112   0.274  -1.715
    1LIG    LP1   64  -1.457   0.408  -2.097
    1LIG    LP2   65  -1.101   0.727  -1.397
   0.00000   0.00000   0.00000
