; Created by cgenff_charmm2gmx.py

[ moleculetype ]
; Name			   nrexcl
LIG				 3

[ atoms ]
;	 nr		  type	resnr residue  atom   cgnr	   charge		mass  typeB    chargeB		massB
; residue	 1 LIG rtp LIG q	qsum
     1      NG2P1      1    LIG     N1      1     -0.615     14.007   ;
     2      CG2N1      1    LIG     C1      2      0.677     12.011   ;
     3      NG2P1      1    LIG     N2      3     -0.707     14.007   ;
     4      NG2P1      1    LIG     N3      4     -0.728     14.007   ;
     5      CG2O1      1    LIG     C2      5      0.797     12.011   ;
     6      OG2D1      1    LIG     O1      6     -0.505     15.999   ;
     7       HGP2      1    LIG     H1      7      0.402      1.008   ;
     8       HGP2      1    LIG     H2      8      0.424      1.008   ;
     9       HGP2      1    LIG     H3      9      0.424      1.008   ;
    10       HGP2      1    LIG     H4     10      0.476      1.008   ;
    11      CG321      1    LIG     C3     11     -0.060     12.011   ;
    12     NG2R51      1    LIG     N4     12     -0.278     14.007   ;
    13     CG2RC0      1    LIG     C4     13      0.320     12.011   ;
    14     CG2R61      1    LIG     C5     14     -0.268     12.011   ;
    15     CG2RC0      1    LIG     C6     15      0.099     12.011   ;
    16     CG2R61      1    LIG     C7     16     -0.050     12.011   ;
    17     CG2R61      1    LIG     C8     17     -0.212     12.011   ;
    18     CG2R61      1    LIG     C9     18     -0.254     12.011   ;
    19     CG2R51      1    LIG    C10     19     -0.302     12.011   ;
    20     CG2R51      1    LIG    C11     20     -0.071     12.011   ;
    21      CG321      1    LIG    C12     21     -0.006     12.011   ;
    22      NG301      1    LIG     N5     22     -0.228     14.007   ;
    23      CG331      1    LIG    C13     23     -0.116     12.011   ;
    24      SG3O2      1    LIG      S     24      0.335     32.060   ;
    25      OG2P1      1    LIG     O2     25     -0.364     15.999   ;
    26      OG2P1      1    LIG     O3     26     -0.364     15.999   ;
    27      CG331      1    LIG    C14     27      0.039     12.011   ;
    28      CG324      1    LIG    C15     28      0.193     12.011   ;
    29     CG2R61      1    LIG    C16     29      0.006     12.011   ;
    30     CG2R61      1    LIG    C17     30     -0.100     12.011   ;
    31     CG2R61      1    LIG    C18     31      0.025     12.011   ;
    32      CLGR1      1    LIG    CL1     32     -0.188     35.453   ;
    33     CG2R61      1    LIG    C19     33      0.313     12.011   ;
    34     CG2R61      1    LIG    C20     34      0.025     12.011   ;
    35     CG2R61      1    LIG    C21     35     -0.100     12.011   ;
    36      CLGR1      1    LIG    CL2     36     -0.188     35.453   ;
    37      NG2S1      1    LIG     N6     37     -0.514     14.007   ;
    38      CG2O1      1    LIG    C22     38      0.527     12.011   ;
    39      OG2D1      1    LIG     O4     39     -0.516     15.999   ;
    40      CG331      1    LIG    C23     40     -0.269     12.011   ;
    41       HGP1      1    LIG     H5     41      0.321      1.008   ;
    42       HGA2      1    LIG    HC2     42      0.090      1.008   ;
    43       HGA2      1    LIG    HC3     43      0.090      1.008   ;
    44      HGR61      1    LIG     HC     44      0.184      1.008   ;
    45      HGR61      1    LIG    HC1     45      0.134      1.008   ;
    46      HGR61      1    LIG    HC4     46      0.197      1.008   ;
    47      HGR51      1    LIG    HC5     47      0.187      1.008   ;
    48      HGR52      1    LIG    HC6     48      0.148      1.008   ;
    49       HGA2      1    LIG    HC7     49      0.090      1.008   ;
    50       HGA2      1    LIG    HC8     50      0.090      1.008   ;
    51       HGA3      1    LIG    HC9     51      0.090      1.008   ;
    52       HGA3      1    LIG   HC10     52      0.090      1.008   ;
    53       HGA3      1    LIG   HC11     53      0.090      1.008   ;
    54       HGA3      1    LIG   HC12     54      0.090      1.008   ;
    55       HGA3      1    LIG   HC13     55      0.090      1.008   ;
    56       HGA3      1    LIG   HC14     56      0.090      1.008   ;
    57       HGA2      1    LIG   HC15     57      0.090      1.008   ;
    58       HGA2      1    LIG   HC16     58      0.090      1.008   ;
    59      HGR62      1    LIG   HC17     59      0.150      1.008   ;
    60      HGR62      1    LIG   HC18     60      0.150      1.008   ;
    61       HGA3      1    LIG   HC19     61      0.090      1.008   ;
    62       HGA3      1    LIG   HC20     62      0.090      1.008   ;
    63       HGA3      1    LIG   HC21     63      0.090      1.008   ;
    64        LPH      1    LIG    LP1     64      0.050      0.000   ;
    65        LPH      1    LIG    LP2     65      0.050      0.000   ;

[ bonds ]
;	ai	  aj funct			  c0			c1			  c2			c3
    1    28	 1 ;       NG2P1      CG324
    1     7	 1 ;       NG2P1       HGP2
    1     2	 1 ;       NG2P1      CG2N1
    2     4	 1 ;       CG2N1      NG2P1
    2     3	 1 ;       CG2N1      NG2P1
    3     9	 1 ;       NG2P1       HGP2
    3     8	 1 ;       NG2P1       HGP2
    4    10	 1 ;       NG2P1       HGP2
    4     5	 1 ;       NG2P1      CG2O1
    5     6	 1 ;       CG2O1      OG2D1
    5    11	 1 ;       CG2O1      CG321
   11    12	 1 ;       CG321     NG2R51
   11    42	 1 ;       CG321       HGA2
   11    43	 1 ;       CG321       HGA2
   12    13	 1 ;      NG2R51     CG2RC0
   12    20	 1 ;      NG2R51     CG2R51
   13    14	 1 ;      CG2RC0     CG2R61
   13    15	 1 ;      CG2RC0     CG2RC0
   14    16	 1 ;      CG2R61     CG2R61
   14    44	 1 ;      CG2R61      HGR61
   15    18	 1 ;      CG2RC0     CG2R61
   15    19	 1 ;      CG2RC0     CG2R51
   16    21	 1 ;      CG2R61      CG321
   16    17	 1 ;      CG2R61     CG2R61
   17    18	 1 ;      CG2R61     CG2R61
   17    45	 1 ;      CG2R61      HGR61
   18    46	 1 ;      CG2R61      HGR61
   19    20	 1 ;      CG2R51     CG2R51
   19    47	 1 ;      CG2R51      HGR51
   20    48	 1 ;      CG2R51      HGR52
   21    22	 1 ;       CG321      NG301
   21    49	 1 ;       CG321       HGA2
   21    50	 1 ;       CG321       HGA2
   22    24	 1 ;       NG301      SG3O2
   22    23	 1 ;       NG301      CG331
   23    51	 1 ;       CG331       HGA3
   23    52	 1 ;       CG331       HGA3
   23    53	 1 ;       CG331       HGA3
   24    25	 1 ;       SG3O2      OG2P1
   24    27	 1 ;       SG3O2      CG331
   24    26	 1 ;       SG3O2      OG2P1
   27    54	 1 ;       CG331       HGA3
   27    55	 1 ;       CG331       HGA3
   27    56	 1 ;       CG331       HGA3
   28    29	 1 ;       CG324     CG2R61
   28    57	 1 ;       CG324       HGA2
   28    58	 1 ;       CG324       HGA2
   29    35	 1 ;      CG2R61     CG2R61
   29    30	 1 ;      CG2R61     CG2R61
   30    31	 1 ;      CG2R61     CG2R61
   30    59	 1 ;      CG2R61      HGR62
   31    33	 1 ;      CG2R61     CG2R61
   31    32	 1 ;      CG2R61      CLGR1
   33    37	 1 ;      CG2R61      NG2S1
   33    34	 1 ;      CG2R61     CG2R61
   34    36	 1 ;      CG2R61      CLGR1
   34    35	 1 ;      CG2R61     CG2R61
   35    60	 1 ;      CG2R61      HGR62
   37    38	 1 ;       NG2S1      CG2O1
   37    41	 1 ;       NG2S1       HGP1
   38    39	 1 ;       CG2O1      OG2D1
   38    40	 1 ;       CG2O1      CG331
   40    61	 1 ;       CG331       HGA3
   40    62	 1 ;       CG331       HGA3
   40    63	 1 ;       CG331       HGA3

[ pairs ]
;	ai	  aj funct			  c0			c1			  c2			c3
    1    10	 1
    1     5	 1
    1     9	 1
    1     8	 1
    1    35	 1
    1    30	 1
    2    29	 1
    2    57	 1
    2    58	 1
    2     6	 1
    2    11	 1
    3    28	 1
    3     7	 1
    3    10	 1
    3     5	 1
    4    28	 1
    4     7	 1
    4     9	 1
    4     8	 1
    4    12	 1
    4    42	 1
    4    43	 1
    5    13	 1
    5    20	 1
    6    10	 1
    6    12	 1
    6    42	 1
    6    43	 1
    7    29	 1
    7    57	 1
    7    58	 1
   10    11	 1
   11    14	 1
   11    15	 1
   11    19	 1
   11    48	 1
   12    16	 1
   12    44	 1
   12    18	 1
   12    47	 1
   13    42	 1
   13    43	 1
   13    48	 1
   13    21	 1
   13    17	 1
   13    46	 1
   13    47	 1
   14    20	 1
   14    18	 1
   14    19	 1
   14    22	 1
   14    49	 1
   14    50	 1
   14    45	 1
   15    16	 1
   15    44	 1
   15    45	 1
   15    48	 1
   16    46	 1
   16    24	 1
   16    23	 1
   17    44	 1
   17    19	 1
   17    22	 1
   17    49	 1
   17    50	 1
   18    20	 1
   18    47	 1
   18    21	 1
   19    46	 1
   20    42	 1
   20    43	 1
   21    44	 1
   21    45	 1
   21    25	 1
   21    27	 1
   21    26	 1
   21    51	 1
   21    52	 1
   21    53	 1
   22    54	 1
   22    55	 1
   22    56	 1
   23    49	 1
   23    50	 1
   23    25	 1
   23    27	 1
   23    26	 1
   24    49	 1
   24    50	 1
   24    51	 1
   24    52	 1
   24    53	 1
   25    54	 1
   25    55	 1
   25    56	 1
   26    54	 1
   26    55	 1
   26    56	 1
   28    34	 1
   28    60	 1
   28    31	 1
   28    59	 1
   29    33	 1
   29    32	 1
   64    29	 1
   29    36	 1
   65    29	 1
   30    57	 1
   30    58	 1
   30    34	 1
   30    60	 1
   30    37	 1
   31    35	 1
   31    38	 1
   31    41	 1
   31    36	 1
   65    31	 1
   32    59	 1
   64    59	 1
   32    37	 1
   64    37	 1
   32    34	 1
   64    34	 1
   33    59	 1
   33    60	 1
   33    39	 1
   33    40	 1
   34    38	 1
   34    41	 1
   35    57	 1
   35    58	 1
   35    59	 1
   35    37	 1
   36    37	 1
   65    37	 1
   36    60	 1
   65    60	 1
   37    61	 1
   37    62	 1
   37    63	 1
   39    41	 1
   39    61	 1
   39    62	 1
   39    63	 1
   40    41	 1
   45    46	 1
   47    48	 1

[ angles ]
;	ai	  aj	ak funct			c0			  c1			c2			  c3
   28     1     7	5 ;      CG324      NG2P1       HGP2
   28     1     2	5 ;      CG324      NG2P1      CG2N1
    7     1     2	5 ;       HGP2      NG2P1      CG2N1
    1     2     4	5 ;      NG2P1      CG2N1      NG2P1
    1     2     3	5 ;      NG2P1      CG2N1      NG2P1
    4     2     3	5 ;      NG2P1      CG2N1      NG2P1
    2     3     9	5 ;      CG2N1      NG2P1       HGP2
    2     3     8	5 ;      CG2N1      NG2P1       HGP2
    9     3     8	5 ;       HGP2      NG2P1       HGP2
    2     4    10	5 ;      CG2N1      NG2P1       HGP2
    2     4     5	5 ;      CG2N1      NG2P1      CG2O1
   10     4     5	5 ;       HGP2      NG2P1      CG2O1
    4     5     6	5 ;      NG2P1      CG2O1      OG2D1
    4     5    11	5 ;      NG2P1      CG2O1      CG321
    6     5    11	5 ;      OG2D1      CG2O1      CG321
    5    11    12	5 ;      CG2O1      CG321     NG2R51
    5    11    42	5 ;      CG2O1      CG321       HGA2
    5    11    43	5 ;      CG2O1      CG321       HGA2
   12    11    42	5 ;     NG2R51      CG321       HGA2
   12    11    43	5 ;     NG2R51      CG321       HGA2
   42    11    43	5 ;       HGA2      CG321       HGA2
   13    12    11	5 ;     CG2RC0     NG2R51      CG321
   13    12    20	5 ;     CG2RC0     NG2R51     CG2R51
   11    12    20	5 ;      CG321     NG2R51     CG2R51
   14    13    15	5 ;     CG2R61     CG2RC0     CG2RC0
   14    13    12	5 ;     CG2R61     CG2RC0     NG2R51
   15    13    12	5 ;     CG2RC0     CG2RC0     NG2R51
   16    14    13	5 ;     CG2R61     CG2R61     CG2RC0
   16    14    44	5 ;     CG2R61     CG2R61      HGR61
   13    14    44	5 ;     CG2RC0     CG2R61      HGR61
   18    15    13	5 ;     CG2R61     CG2RC0     CG2RC0
   18    15    19	5 ;     CG2R61     CG2RC0     CG2R51
   13    15    19	5 ;     CG2RC0     CG2RC0     CG2R51
   21    16    17	5 ;      CG321     CG2R61     CG2R61
   21    16    14	5 ;      CG321     CG2R61     CG2R61
   17    16    14	5 ;     CG2R61     CG2R61     CG2R61
   16    17    18	5 ;     CG2R61     CG2R61     CG2R61
   16    17    45	5 ;     CG2R61     CG2R61      HGR61
   18    17    45	5 ;     CG2R61     CG2R61      HGR61
   17    18    15	5 ;     CG2R61     CG2R61     CG2RC0
   17    18    46	5 ;     CG2R61     CG2R61      HGR61
   15    18    46	5 ;     CG2RC0     CG2R61      HGR61
   15    19    20	5 ;     CG2RC0     CG2R51     CG2R51
   15    19    47	5 ;     CG2RC0     CG2R51      HGR51
   20    19    47	5 ;     CG2R51     CG2R51      HGR51
   12    20    19	5 ;     NG2R51     CG2R51     CG2R51
   12    20    48	5 ;     NG2R51     CG2R51      HGR52
   19    20    48	5 ;     CG2R51     CG2R51      HGR52
   16    21    22	5 ;     CG2R61      CG321      NG301
   16    21    49	5 ;     CG2R61      CG321       HGA2
   16    21    50	5 ;     CG2R61      CG321       HGA2
   22    21    49	5 ;      NG301      CG321       HGA2
   22    21    50	5 ;      NG301      CG321       HGA2
   49    21    50	5 ;       HGA2      CG321       HGA2
   21    22    24	5 ;      CG321      NG301      SG3O2
   21    22    23	5 ;      CG321      NG301      CG331
   24    22    23	5 ;      SG3O2      NG301      CG331
   22    23    51	5 ;      NG301      CG331       HGA3
   22    23    52	5 ;      NG301      CG331       HGA3
   22    23    53	5 ;      NG301      CG331       HGA3
   51    23    52	5 ;       HGA3      CG331       HGA3
   51    23    53	5 ;       HGA3      CG331       HGA3
   52    23    53	5 ;       HGA3      CG331       HGA3
   25    24    27	5 ;      OG2P1      SG3O2      CG331
   25    24    22	5 ;      OG2P1      SG3O2      NG301
   25    24    26	5 ;      OG2P1      SG3O2      OG2P1
   27    24    22	5 ;      CG331      SG3O2      NG301
   27    24    26	5 ;      CG331      SG3O2      OG2P1
   22    24    26	5 ;      NG301      SG3O2      OG2P1
   24    27    54	5 ;      SG3O2      CG331       HGA3
   24    27    55	5 ;      SG3O2      CG331       HGA3
   24    27    56	5 ;      SG3O2      CG331       HGA3
   54    27    55	5 ;       HGA3      CG331       HGA3
   54    27    56	5 ;       HGA3      CG331       HGA3
   55    27    56	5 ;       HGA3      CG331       HGA3
   29    28     1	5 ;     CG2R61      CG324      NG2P1
   29    28    57	5 ;     CG2R61      CG324       HGA2
   29    28    58	5 ;     CG2R61      CG324       HGA2
    1    28    57	5 ;      NG2P1      CG324       HGA2
    1    28    58	5 ;      NG2P1      CG324       HGA2
   57    28    58	5 ;       HGA2      CG324       HGA2
   35    29    30	5 ;     CG2R61     CG2R61     CG2R61
   35    29    28	5 ;     CG2R61     CG2R61      CG324
   30    29    28	5 ;     CG2R61     CG2R61      CG324
   31    30    29	5 ;     CG2R61     CG2R61     CG2R61
   31    30    59	5 ;     CG2R61     CG2R61      HGR62
   29    30    59	5 ;     CG2R61     CG2R61      HGR62
   33    31    32	5 ;     CG2R61     CG2R61      CLGR1
   33    31    30	5 ;     CG2R61     CG2R61     CG2R61
   32    31    30	5 ;      CLGR1     CG2R61     CG2R61
   37    33    34	5 ;      NG2S1     CG2R61     CG2R61
   37    33    31	5 ;      NG2S1     CG2R61     CG2R61
   34    33    31	5 ;     CG2R61     CG2R61     CG2R61
   33    34    36	5 ;     CG2R61     CG2R61      CLGR1
   33    34    35	5 ;     CG2R61     CG2R61     CG2R61
   36    34    35	5 ;      CLGR1     CG2R61     CG2R61
   34    35    29	5 ;     CG2R61     CG2R61     CG2R61
   34    35    60	5 ;     CG2R61     CG2R61      HGR62
   29    35    60	5 ;     CG2R61     CG2R61      HGR62
   38    37    33	5 ;      CG2O1      NG2S1     CG2R61
   38    37    41	5 ;      CG2O1      NG2S1       HGP1
   33    37    41	5 ;     CG2R61      NG2S1       HGP1
   39    38    40	5 ;      OG2D1      CG2O1      CG331
   39    38    37	5 ;      OG2D1      CG2O1      NG2S1
   40    38    37	5 ;      CG331      CG2O1      NG2S1
   38    40    61	5 ;      CG2O1      CG331       HGA3
   38    40    62	5 ;      CG2O1      CG331       HGA3
   38    40    63	5 ;      CG2O1      CG331       HGA3
   61    40    62	5 ;       HGA3      CG331       HGA3
   61    40    63	5 ;       HGA3      CG331       HGA3
   62    40    63	5 ;       HGA3      CG331       HGA3

[ dihedrals ]
;	ai	  aj	ak	  al funct			  c0			c1			  c2			c3			  c4			c5
    7     1    28    29	 9 ;       HGP2      NG2P1      CG324     CG2R61
    7     1    28    57	 9 ;       HGP2      NG2P1      CG324       HGA2
    7     1    28    58	 9 ;       HGP2      NG2P1      CG324       HGA2
    2     1    28    29	 9 ;      CG2N1      NG2P1      CG324     CG2R61
    2     1    28    57	 9 ;      CG2N1      NG2P1      CG324       HGA2
    2     1    28    58	 9 ;      CG2N1      NG2P1      CG324       HGA2
   28     1     2     4	 9 ;      CG324      NG2P1      CG2N1      NG2P1
   28     1     2     3	 9 ;      CG324      NG2P1      CG2N1      NG2P1
    7     1     2     4	 9 ;       HGP2      NG2P1      CG2N1      NG2P1
    7     1     2     3	 9 ;       HGP2      NG2P1      CG2N1      NG2P1
    1     2     4    10	 9 ;      NG2P1      CG2N1      NG2P1       HGP2
    1     2     4     5	 9 ;      NG2P1      CG2N1      NG2P1      CG2O1
    3     2     4    10	 9 ;      NG2P1      CG2N1      NG2P1       HGP2
    3     2     4     5	 9 ;      NG2P1      CG2N1      NG2P1      CG2O1
    1     2     3     9	 9 ;      NG2P1      CG2N1      NG2P1       HGP2
    1     2     3     8	 9 ;      NG2P1      CG2N1      NG2P1       HGP2
    4     2     3     9	 9 ;      NG2P1      CG2N1      NG2P1       HGP2
    4     2     3     8	 9 ;      NG2P1      CG2N1      NG2P1       HGP2
    2     4     5     6	 9 ;      CG2N1      NG2P1      CG2O1      OG2D1
    2     4     5    11	 9 ;      CG2N1      NG2P1      CG2O1      CG321
   10     4     5     6	 9 ;       HGP2      NG2P1      CG2O1      OG2D1
   10     4     5    11	 9 ;       HGP2      NG2P1      CG2O1      CG321
    4     5    11    12	 9 ;      NG2P1      CG2O1      CG321     NG2R51
    4     5    11    42	 9 ;      NG2P1      CG2O1      CG321       HGA2
    4     5    11    43	 9 ;      NG2P1      CG2O1      CG321       HGA2
    6     5    11    12	 9 ;      OG2D1      CG2O1      CG321     NG2R51
    6     5    11    42	 9 ;      OG2D1      CG2O1      CG321       HGA2
    6     5    11    43	 9 ;      OG2D1      CG2O1      CG321       HGA2
    5    11    12    13	 9 ;      CG2O1      CG321     NG2R51     CG2RC0
    5    11    12    20	 9 ;      CG2O1      CG321     NG2R51     CG2R51
   42    11    12    13	 9 ;       HGA2      CG321     NG2R51     CG2RC0
   42    11    12    20	 9 ;       HGA2      CG321     NG2R51     CG2R51
   43    11    12    13	 9 ;       HGA2      CG321     NG2R51     CG2RC0
   43    11    12    20	 9 ;       HGA2      CG321     NG2R51     CG2R51
   11    12    13    14	 9 ;      CG321     NG2R51     CG2RC0     CG2R61
   11    12    13    15	 9 ;      CG321     NG2R51     CG2RC0     CG2RC0
   20    12    13    14	 9 ;     CG2R51     NG2R51     CG2RC0     CG2R61
   20    12    13    15	 9 ;     CG2R51     NG2R51     CG2RC0     CG2RC0
   13    12    20    19	 9 ;     CG2RC0     NG2R51     CG2R51     CG2R51
   13    12    20    48	 9 ;     CG2RC0     NG2R51     CG2R51      HGR52
   11    12    20    19	 9 ;      CG321     NG2R51     CG2R51     CG2R51
   11    12    20    48	 9 ;      CG321     NG2R51     CG2R51      HGR52
   15    13    14    16	 9 ;     CG2RC0     CG2RC0     CG2R61     CG2R61
   15    13    14    44	 9 ;     CG2RC0     CG2RC0     CG2R61      HGR61
   12    13    14    16	 9 ;     NG2R51     CG2RC0     CG2R61     CG2R61
   12    13    14    44	 9 ;     NG2R51     CG2RC0     CG2R61      HGR61
   14    13    15    18	 9 ;     CG2R61     CG2RC0     CG2RC0     CG2R61
   14    13    15    19	 9 ;     CG2R61     CG2RC0     CG2RC0     CG2R51
   12    13    15    18	 9 ;     NG2R51     CG2RC0     CG2RC0     CG2R61
   12    13    15    19	 9 ;     NG2R51     CG2RC0     CG2RC0     CG2R51
   13    14    16    21	 9 ;     CG2RC0     CG2R61     CG2R61      CG321
   13    14    16    17	 9 ;     CG2RC0     CG2R61     CG2R61     CG2R61
   44    14    16    21	 9 ;      HGR61     CG2R61     CG2R61      CG321
   44    14    16    17	 9 ;      HGR61     CG2R61     CG2R61     CG2R61
   13    15    18    17	 9 ;     CG2RC0     CG2RC0     CG2R61     CG2R61
   13    15    18    46	 9 ;     CG2RC0     CG2RC0     CG2R61      HGR61
   19    15    18    17	 9 ;     CG2R51     CG2RC0     CG2R61     CG2R61
   19    15    18    46	 9 ;     CG2R51     CG2RC0     CG2R61      HGR61
   18    15    19    20	 9 ;     CG2R61     CG2RC0     CG2R51     CG2R51
   18    15    19    47	 9 ;     CG2R61     CG2RC0     CG2R51      HGR51
   13    15    19    20	 9 ;     CG2RC0     CG2RC0     CG2R51     CG2R51
   13    15    19    47	 9 ;     CG2RC0     CG2RC0     CG2R51      HGR51
   17    16    21    22	 9 ;     CG2R61     CG2R61      CG321      NG301
   17    16    21    49	 9 ;     CG2R61     CG2R61      CG321       HGA2
   17    16    21    50	 9 ;     CG2R61     CG2R61      CG321       HGA2
   14    16    21    22	 9 ;     CG2R61     CG2R61      CG321      NG301
   14    16    21    49	 9 ;     CG2R61     CG2R61      CG321       HGA2
   14    16    21    50	 9 ;     CG2R61     CG2R61      CG321       HGA2
   21    16    17    18	 9 ;      CG321     CG2R61     CG2R61     CG2R61
   21    16    17    45	 9 ;      CG321     CG2R61     CG2R61      HGR61
   14    16    17    18	 9 ;     CG2R61     CG2R61     CG2R61     CG2R61
   14    16    17    45	 9 ;     CG2R61     CG2R61     CG2R61      HGR61
   16    17    18    15	 9 ;     CG2R61     CG2R61     CG2R61     CG2RC0
   16    17    18    46	 9 ;     CG2R61     CG2R61     CG2R61      HGR61
   45    17    18    15	 9 ;      HGR61     CG2R61     CG2R61     CG2RC0
   45    17    18    46	 9 ;      HGR61     CG2R61     CG2R61      HGR61
   15    19    20    12	 9 ;     CG2RC0     CG2R51     CG2R51     NG2R51
   15    19    20    48	 9 ;     CG2RC0     CG2R51     CG2R51      HGR52
   47    19    20    12	 9 ;      HGR51     CG2R51     CG2R51     NG2R51
   47    19    20    48	 9 ;      HGR51     CG2R51     CG2R51      HGR52
   16    21    22    24	 9 ;     CG2R61      CG321      NG301      SG3O2
   16    21    22    23	 9 ;     CG2R61      CG321      NG301      CG331
   49    21    22    24	 9 ;       HGA2      CG321      NG301      SG3O2
   49    21    22    23	 9 ;       HGA2      CG321      NG301      CG331
   50    21    22    24	 9 ;       HGA2      CG321      NG301      SG3O2
   50    21    22    23	 9 ;       HGA2      CG321      NG301      CG331
   21    22    24    25	 9 ;      CG321      NG301      SG3O2      OG2P1
   21    22    24    27	 9 ;      CG321      NG301      SG3O2      CG331
   21    22    24    26	 9 ;      CG321      NG301      SG3O2      OG2P1
   23    22    24    25	 9 ;      CG331      NG301      SG3O2      OG2P1
   23    22    24    27	 9 ;      CG331      NG301      SG3O2      CG331
   23    22    24    26	 9 ;      CG331      NG301      SG3O2      OG2P1
   21    22    23    51	 9 ;      CG321      NG301      CG331       HGA3
   21    22    23    52	 9 ;      CG321      NG301      CG331       HGA3
   21    22    23    53	 9 ;      CG321      NG301      CG331       HGA3
   24    22    23    51	 9 ;      SG3O2      NG301      CG331       HGA3
   24    22    23    52	 9 ;      SG3O2      NG301      CG331       HGA3
   24    22    23    53	 9 ;      SG3O2      NG301      CG331       HGA3
   25    24    27    54	 9 ;      OG2P1      SG3O2      CG331       HGA3
   25    24    27    55	 9 ;      OG2P1      SG3O2      CG331       HGA3
   25    24    27    56	 9 ;      OG2P1      SG3O2      CG331       HGA3
   22    24    27    54	 9 ;      NG301      SG3O2      CG331       HGA3
   22    24    27    55	 9 ;      NG301      SG3O2      CG331       HGA3
   22    24    27    56	 9 ;      NG301      SG3O2      CG331       HGA3
   26    24    27    54	 9 ;      OG2P1      SG3O2      CG331       HGA3
   26    24    27    55	 9 ;      OG2P1      SG3O2      CG331       HGA3
   26    24    27    56	 9 ;      OG2P1      SG3O2      CG331       HGA3
    1    28    29    35	 9 ;      NG2P1      CG324     CG2R61     CG2R61
    1    28    29    30	 9 ;      NG2P1      CG324     CG2R61     CG2R61
   57    28    29    35	 9 ;       HGA2      CG324     CG2R61     CG2R61
   57    28    29    30	 9 ;       HGA2      CG324     CG2R61     CG2R61
   58    28    29    35	 9 ;       HGA2      CG324     CG2R61     CG2R61
   58    28    29    30	 9 ;       HGA2      CG324     CG2R61     CG2R61
   30    29    35    34	 9 ;     CG2R61     CG2R61     CG2R61     CG2R61
   30    29    35    60	 9 ;     CG2R61     CG2R61     CG2R61      HGR62
   28    29    35    34	 9 ;      CG324     CG2R61     CG2R61     CG2R61
   28    29    35    60	 9 ;      CG324     CG2R61     CG2R61      HGR62
   35    29    30    31	 9 ;     CG2R61     CG2R61     CG2R61     CG2R61
   35    29    30    59	 9 ;     CG2R61     CG2R61     CG2R61      HGR62
   28    29    30    31	 9 ;      CG324     CG2R61     CG2R61     CG2R61
   28    29    30    59	 9 ;      CG324     CG2R61     CG2R61      HGR62
   29    30    31    33	 9 ;     CG2R61     CG2R61     CG2R61     CG2R61
   29    30    31    32	 9 ;     CG2R61     CG2R61     CG2R61      CLGR1
   59    30    31    33	 9 ;      HGR62     CG2R61     CG2R61     CG2R61
   59    30    31    32	 9 ;      HGR62     CG2R61     CG2R61      CLGR1
   32    31    33    37	 9 ;      CLGR1     CG2R61     CG2R61      NG2S1
   32    31    33    34	 9 ;      CLGR1     CG2R61     CG2R61     CG2R61
   30    31    33    37	 9 ;     CG2R61     CG2R61     CG2R61      NG2S1
   30    31    33    34	 9 ;     CG2R61     CG2R61     CG2R61     CG2R61
   34    33    37    38	 9 ;     CG2R61     CG2R61      NG2S1      CG2O1
   34    33    37    41	 9 ;     CG2R61     CG2R61      NG2S1       HGP1
   31    33    37    38	 9 ;     CG2R61     CG2R61      NG2S1      CG2O1
   31    33    37    41	 9 ;     CG2R61     CG2R61      NG2S1       HGP1
   37    33    34    36	 9 ;      NG2S1     CG2R61     CG2R61      CLGR1
   37    33    34    35	 9 ;      NG2S1     CG2R61     CG2R61     CG2R61
   31    33    34    36	 9 ;     CG2R61     CG2R61     CG2R61      CLGR1
   31    33    34    35	 9 ;     CG2R61     CG2R61     CG2R61     CG2R61
   33    34    35    29	 9 ;     CG2R61     CG2R61     CG2R61     CG2R61
   33    34    35    60	 9 ;     CG2R61     CG2R61     CG2R61      HGR62
   36    34    35    29	 9 ;      CLGR1     CG2R61     CG2R61     CG2R61
   36    34    35    60	 9 ;      CLGR1     CG2R61     CG2R61      HGR62
   33    37    38    39	 9 ;     CG2R61      NG2S1      CG2O1      OG2D1
   33    37    38    40	 9 ;     CG2R61      NG2S1      CG2O1      CG331
   41    37    38    39	 9 ;       HGP1      NG2S1      CG2O1      OG2D1
   41    37    38    40	 9 ;       HGP1      NG2S1      CG2O1      CG331
   39    38    40    61	 9 ;      OG2D1      CG2O1      CG331       HGA3
   39    38    40    62	 9 ;      OG2D1      CG2O1      CG331       HGA3
   39    38    40    63	 9 ;      OG2D1      CG2O1      CG331       HGA3
   37    38    40    61	 9 ;      NG2S1      CG2O1      CG331       HGA3
   37    38    40    62	 9 ;      NG2S1      CG2O1      CG331       HGA3
   37    38    40    63	 9 ;      NG2S1      CG2O1      CG331       HGA3

[ dihedrals ]
;	ai	  aj	ak	  al funct			  c0			c1			  c2			c3
    2     1     4     3	 2
    5    11     4     6	 2
   38    40    37    39	 2

[ virtual_sites2 ]
; Site   from				funct a
   64    32    31     2   -0.164
   65    36    34     2   -0.164

[ exclusions ]
;	ai	  aj
   32    64
   36    65
   64    31
   65    34
   64    33
   64    30
   65    33
   65    35
   64    29
   65    29
   65    31
   64    59
   64    37
   64    34
   65    37
   65    60

