Gallium Rubidium Oxygen Manganese Argon Carbon Silicon
   89
    1LIG     C1    1  -1.489   0.517  -1.691
    1LIG     O1    2  -1.602   0.496  -1.738
    1LIG     N1    3  -1.472   0.547  -1.556
    1LIG     H1    4  -1.377   0.559  -1.522
    1LIG     C2    5  -1.361   0.518  -1.783
    1LIG     N2    6  -1.364   0.393  -1.869
    1LIG     C3    7  -1.318   0.268  -1.877
    1LIG     O2    8  -1.358   0.209  -1.980
    1LIG     H2    9  -1.441   0.402  -1.936
    1LIG     C4   10  -1.207   0.199  -1.791
    1LIG     N3   11  -1.152   0.071  -1.832
    1LIG     C5   12  -1.100  -0.026  -1.751
    1LIG     O3   13  -1.007  -0.094  -1.793
    1LIG     C6   14  -1.163  -0.056  -1.617
    1LIG     H3   15  -1.097   0.074  -1.917
    1LIG     C7   16  -1.088   0.298  -1.752
    1LIG     C8   17  -1.056   0.324  -1.601
    1LIG     C9   18  -0.982   0.455  -1.578
    1LIG    C10   19  -1.185   0.328  -1.515
    1LIG    C11   20  -1.366   0.640  -1.884
    1LIG    C12   21  -1.329   0.623  -2.032
    1LIG      S   22  -1.170   0.695  -2.083
    1LIG    C13   23  -1.139   0.601  -2.235
    1LIG    C14   24  -1.573   0.512  -1.450
    1LIG    C15   25  -1.535   0.371  -1.391
    1LIG    C16   26  -1.611   0.248  -1.450
    1LIG    C17   27  -1.750   0.286  -1.500
    1LIG    C18   28  -1.532   0.178  -1.561
    1LIG    C19   29  -1.577   0.614  -1.330
    1LIG     O4   30  -1.593   0.746  -1.384
    1LIG     H4   31  -1.566   0.809  -1.314
    1LIG    C20   32  -1.675   0.599  -1.213
    1LIG    C21   33  -1.622   0.538  -1.081
    1LIG    C22   34  -1.661   0.620  -0.958
    1LIG    C23   35  -1.674   0.394  -1.061
    1LIG     O5   36  -1.766   0.345  -1.125
    1LIG     N4   37  -1.611   0.324  -0.958
    1LIG     H5   38  -1.546   0.374  -0.900
    1LIG    C24   39  -1.662   0.197  -0.906
    1LIG    C25   40  -1.609   0.158  -0.768
    1LIG    C26   41  -1.667   0.029  -0.708
    1LIG    C27   42  -1.663  -0.084  -0.810
    1LIG     H6   43  -1.274   0.525  -1.721
    1LIG     H7   44  -1.266   0.174  -1.706
    1LIG     H8   45  -1.242   0.014  -1.598
    1LIG     H9   46  -1.089  -0.047  -1.540
    1LIG    H10   47  -1.202  -0.156  -1.617
    1LIG    H11   48  -1.111   0.393  -1.795
    1LIG    H12   49  -1.001   0.248  -1.787
    1LIG    H13   50  -0.994   0.242  -1.571
    1LIG    H14   51  -1.044   0.537  -1.607
    1LIG    H15   52  -0.892   0.456  -1.636
    1LIG    H16   53  -0.957   0.465  -1.474
    1LIG    H17   54  -1.246   0.410  -1.546
    1LIG    H18   55  -1.159   0.340  -1.412
    1LIG    H19   56  -1.239   0.237  -1.528
    1LIG    H20   57  -1.466   0.677  -1.882
    1LIG    H21   58  -1.287   0.702  -1.847
    1LIG    H22   59  -1.326   0.518  -2.053
    1LIG    H23   60  -1.403   0.677  -2.086
    1LIG    H24   61  -1.046   0.632  -2.278
    1LIG    H25   62  -1.218   0.619  -2.305
    1LIG    H26   63  -1.134   0.496  -2.213
    1LIG    H27   64  -1.669   0.515  -1.496
    1LIG    H28   65  -1.430   0.355  -1.409
    1LIG    H29   66  -1.562   0.374  -1.288
    1LIG    H30   67  -1.622   0.179  -1.369
    1LIG    H31   68  -1.741   0.354  -1.582
    1LIG    H32   69  -1.806   0.331  -1.421
    1LIG    H33   70  -1.801   0.198  -1.534
    1LIG    H34   71  -1.520   0.245  -1.644
    1LIG    H35   72  -1.586   0.091  -1.594
    1LIG    H36   73  -1.436   0.149  -1.524
    1LIG    H37   74  -1.485   0.592  -1.282
    1LIG    H38   75  -1.756   0.537  -1.246
    1LIG    H39   76  -1.701   0.699  -1.187
    1LIG    H40   77  -1.515   0.538  -1.091
    1LIG    H41   78  -1.768   0.621  -0.948
    1LIG    H42   79  -1.626   0.721  -0.969
    1LIG    H43   80  -1.617   0.577  -0.871
    1LIG    H44   81  -1.636   0.120  -0.975
    1LIG    H45   82  -1.768   0.210  -0.895
    1LIG    H46   83  -1.630   0.238  -0.701
    1LIG    H47   84  -1.504   0.139  -0.781
    1LIG    H48   85  -1.610   0.001  -0.622
    1LIG    H49   86  -1.769   0.047  -0.680
    1LIG    H50   87  -1.562  -0.103  -0.839
    1LIG    H51   88  -1.720  -0.056  -0.897
    1LIG    H52   89  -1.705  -0.173  -0.767
   0.00000   0.00000   0.00000
