; Created by cgenff_charmm2gmx.py

[ moleculetype ]
; Name			   nrexcl
LIG				 3

[ atoms ]
;	 nr		  type	resnr residue  atom   cgnr	   charge		mass  typeB    chargeB		massB
; residue	 1 LIG rtp LIG q	qsum
     1      CG2O1      1    LIG     C1      1      0.494     12.011   ;
     2      OG2D1      1    LIG     O1      2     -0.509     15.999   ;
     3      NG2S1      1    LIG     N1      3     -0.401     14.007   ;
     4       HGP1      1    LIG     H1      4      0.269      1.008   ;
     5      CG311      1    LIG     C2      5      0.064     12.011   ;
     6      NG2S1      1    LIG     N2      6     -0.461     14.007   ;
     7      CG2O1      1    LIG     C3      7      0.512     12.011   ;
     8      OG2D1      1    LIG     O2      8     -0.509     15.999   ;
     9       HGP1      1    LIG     H2      9      0.316      1.008   ;
    10      CG311      1    LIG     C4     10      0.059     12.011   ;
    11      NG2S1      1    LIG     N3     11     -0.423     14.007   ;
    12      CG2O1      1    LIG     C5     12      0.506     12.011   ;
    13      OG2D1      1    LIG     O3     13     -0.509     15.999   ;
    14      CG331      1    LIG     C6     14     -0.270     12.011   ;
    15       HGP1      1    LIG     H3     15      0.308      1.008   ;
    16      CG321      1    LIG     C7     16     -0.178     12.011   ;
    17      CG311      1    LIG     C8     17     -0.099     12.011   ;
    18      CG331      1    LIG     C9     18     -0.268     12.011   ;
    19      CG331      1    LIG    C10     19     -0.268     12.011   ;
    20      CG321      1    LIG    C11     20     -0.182     12.011   ;
    21      CG321      1    LIG    C12     21     -0.135     12.011   ;
    22      SG311      1    LIG      S     22     -0.105     32.060   ;
    23      CG331      1    LIG    C13     23     -0.220     12.011   ;
    24      CG311      1    LIG    C14     24     -0.042     12.011   ;
    25      CG321      1    LIG    C15     25     -0.101     12.011   ;
    26      CG311      1    LIG    C16     26     -0.109     12.011   ;
    27      CG331      1    LIG    C17     27     -0.268     12.011   ;
    28      CG331      1    LIG    C18     28     -0.268     12.011   ;
    29      CG311      1    LIG    C19     29      0.119     12.011   ;
    30      OG311      1    LIG     O4     30     -0.648     15.999   ;
    31       HGP1      1    LIG     H4     31      0.421      1.008   ;
    32      CG321      1    LIG    C20     32     -0.187     12.011   ;
    33      CG311      1    LIG    C21     33     -0.033     12.011   ;
    34      CG331      1    LIG    C22     34     -0.266     12.011   ;
    35      CG2O1      1    LIG    C23     35      0.492     12.011   ;
    36      OG2D1      1    LIG     O5     36     -0.514     15.999   ;
    37      NG2S1      1    LIG     N4     37     -0.457     14.007   ;
    38       HGP1      1    LIG     H5     38      0.305      1.008   ;
    39      CG321      1    LIG    C24     39     -0.033     12.011   ;
    40      CG321      1    LIG    C25     40     -0.184     12.011   ;
    41      CG321      1    LIG    C26     41     -0.178     12.011   ;
    42      CG331      1    LIG    C27     42     -0.270     12.011   ;
    43       HGA1      1    LIG     H6     43      0.090      1.008   ;
    44       HGA1      1    LIG     H7     44      0.090      1.008   ;
    45       HGA3      1    LIG     H8     45      0.090      1.008   ;
    46       HGA3      1    LIG     H9     46      0.090      1.008   ;
    47       HGA3      1    LIG    H10     47      0.090      1.008   ;
    48       HGA2      1    LIG    H11     48      0.090      1.008   ;
    49       HGA2      1    LIG    H12     49      0.090      1.008   ;
    50       HGA1      1    LIG    H13     50      0.090      1.008   ;
    51       HGA3      1    LIG    H14     51      0.090      1.008   ;
    52       HGA3      1    LIG    H15     52      0.090      1.008   ;
    53       HGA3      1    LIG    H16     53      0.090      1.008   ;
    54       HGA3      1    LIG    H17     54      0.090      1.008   ;
    55       HGA3      1    LIG    H18     55      0.090      1.008   ;
    56       HGA3      1    LIG    H19     56      0.090      1.008   ;
    57       HGA2      1    LIG    H20     57      0.090      1.008   ;
    58       HGA2      1    LIG    H21     58      0.090      1.008   ;
    59       HGA2      1    LIG    H22     59      0.090      1.008   ;
    60       HGA2      1    LIG    H23     60      0.090      1.008   ;
    61       HGA3      1    LIG    H24     61      0.090      1.008   ;
    62       HGA3      1    LIG    H25     62      0.090      1.008   ;
    63       HGA3      1    LIG    H26     63      0.090      1.008   ;
    64       HGA1      1    LIG    H27     64      0.090      1.008   ;
    65       HGA2      1    LIG    H28     65      0.090      1.008   ;
    66       HGA2      1    LIG    H29     66      0.090      1.008   ;
    67       HGA1      1    LIG    H30     67      0.090      1.008   ;
    68       HGA3      1    LIG    H31     68      0.090      1.008   ;
    69       HGA3      1    LIG    H32     69      0.090      1.008   ;
    70       HGA3      1    LIG    H33     70      0.090      1.008   ;
    71       HGA3      1    LIG    H34     71      0.090      1.008   ;
    72       HGA3      1    LIG    H35     72      0.090      1.008   ;
    73       HGA3      1    LIG    H36     73      0.090      1.008   ;
    74       HGA1      1    LIG    H37     74      0.090      1.008   ;
    75       HGA2      1    LIG    H38     75      0.090      1.008   ;
    76       HGA2      1    LIG    H39     76      0.090      1.008   ;
    77       HGA1      1    LIG    H40     77      0.090      1.008   ;
    78       HGA3      1    LIG    H41     78      0.090      1.008   ;
    79       HGA3      1    LIG    H42     79      0.090      1.008   ;
    80       HGA3      1    LIG    H43     80      0.090      1.008   ;
    81       HGA2      1    LIG    H44     81      0.090      1.008   ;
    82       HGA2      1    LIG    H45     82      0.090      1.008   ;
    83       HGA2      1    LIG    H46     83      0.090      1.008   ;
    84       HGA2      1    LIG    H47     84      0.090      1.008   ;
    85       HGA2      1    LIG    H48     85      0.090      1.008   ;
    86       HGA2      1    LIG    H49     86      0.090      1.008   ;
    87       HGA3      1    LIG    H50     87      0.090      1.008   ;
    88       HGA3      1    LIG    H51     88      0.090      1.008   ;
    89       HGA3      1    LIG    H52     89      0.090      1.008   ;

[ bonds ]
;	ai	  aj funct			  c0			c1			  c2			c3
    1     5	 1 ;       CG2O1      CG311
    1     2	 1 ;       CG2O1      OG2D1
    1     3	 1 ;       CG2O1      NG2S1
    3     4	 1 ;       NG2S1       HGP1
    3    24	 1 ;       NG2S1      CG311
    5    20	 1 ;       CG311      CG321
    5     6	 1 ;       CG311      NG2S1
    5    43	 1 ;       CG311       HGA1
    6     9	 1 ;       NG2S1       HGP1
    6     7	 1 ;       NG2S1      CG2O1
    7     8	 1 ;       CG2O1      OG2D1
    7    10	 1 ;       CG2O1      CG311
   10    11	 1 ;       CG311      NG2S1
   10    16	 1 ;       CG311      CG321
   10    44	 1 ;       CG311       HGA1
   11    15	 1 ;       NG2S1       HGP1
   11    12	 1 ;       NG2S1      CG2O1
   12    13	 1 ;       CG2O1      OG2D1
   12    14	 1 ;       CG2O1      CG331
   14    45	 1 ;       CG331       HGA3
   14    46	 1 ;       CG331       HGA3
   14    47	 1 ;       CG331       HGA3
   16    17	 1 ;       CG321      CG311
   16    48	 1 ;       CG321       HGA2
   16    49	 1 ;       CG321       HGA2
   17    18	 1 ;       CG311      CG331
   17    19	 1 ;       CG311      CG331
   17    50	 1 ;       CG311       HGA1
   18    51	 1 ;       CG331       HGA3
   18    52	 1 ;       CG331       HGA3
   18    53	 1 ;       CG331       HGA3
   19    54	 1 ;       CG331       HGA3
   19    55	 1 ;       CG331       HGA3
   19    56	 1 ;       CG331       HGA3
   20    21	 1 ;       CG321      CG321
   20    57	 1 ;       CG321       HGA2
   20    58	 1 ;       CG321       HGA2
   21    22	 1 ;       CG321      SG311
   21    59	 1 ;       CG321       HGA2
   21    60	 1 ;       CG321       HGA2
   22    23	 1 ;       SG311      CG331
   23    61	 1 ;       CG331       HGA3
   23    62	 1 ;       CG331       HGA3
   23    63	 1 ;       CG331       HGA3
   24    25	 1 ;       CG311      CG321
   24    29	 1 ;       CG311      CG311
   24    64	 1 ;       CG311       HGA1
   25    26	 1 ;       CG321      CG311
   25    65	 1 ;       CG321       HGA2
   25    66	 1 ;       CG321       HGA2
   26    28	 1 ;       CG311      CG331
   26    27	 1 ;       CG311      CG331
   26    67	 1 ;       CG311       HGA1
   27    68	 1 ;       CG331       HGA3
   27    69	 1 ;       CG331       HGA3
   27    70	 1 ;       CG331       HGA3
   28    71	 1 ;       CG331       HGA3
   28    72	 1 ;       CG331       HGA3
   28    73	 1 ;       CG331       HGA3
   29    30	 1 ;       CG311      OG311
   29    32	 1 ;       CG311      CG321
   29    74	 1 ;       CG311       HGA1
   30    31	 1 ;       OG311       HGP1
   32    33	 1 ;       CG321      CG311
   32    75	 1 ;       CG321       HGA2
   32    76	 1 ;       CG321       HGA2
   33    35	 1 ;       CG311      CG2O1
   33    34	 1 ;       CG311      CG331
   33    77	 1 ;       CG311       HGA1
   34    78	 1 ;       CG331       HGA3
   34    79	 1 ;       CG331       HGA3
   34    80	 1 ;       CG331       HGA3
   35    36	 1 ;       CG2O1      OG2D1
   35    37	 1 ;       CG2O1      NG2S1
   37    39	 1 ;       NG2S1      CG321
   37    38	 1 ;       NG2S1       HGP1
   39    40	 1 ;       CG321      CG321
   39    81	 1 ;       CG321       HGA2
   39    82	 1 ;       CG321       HGA2
   40    41	 1 ;       CG321      CG321
   40    83	 1 ;       CG321       HGA2
   40    84	 1 ;       CG321       HGA2
   41    42	 1 ;       CG321      CG331
   41    85	 1 ;       CG321       HGA2
   41    86	 1 ;       CG321       HGA2
   42    87	 1 ;       CG331       HGA3
   42    88	 1 ;       CG331       HGA3
   42    89	 1 ;       CG331       HGA3

[ pairs ]
;	ai	  aj funct			  c0			c1			  c2			c3
    1    25	 1
    1    29	 1
    1    64	 1
    1    21	 1
    1    57	 1
    1    58	 1
    1     9	 1
    1     7	 1
    2    20	 1
    2     6	 1
    2    43	 1
    2     4	 1
    2    24	 1
    3    20	 1
    3     6	 1
    3    43	 1
    3    26	 1
    3    65	 1
    3    66	 1
    3    30	 1
    3    32	 1
    3    74	 1
    4     5	 1
    4    25	 1
    4    29	 1
    4    64	 1
    5    24	 1
    5     8	 1
    5    10	 1
    5    22	 1
    5    59	 1
    5    60	 1
    6    21	 1
    6    57	 1
    6    58	 1
    6    11	 1
    6    16	 1
    6    44	 1
    7    20	 1
    7    43	 1
    7    15	 1
    7    12	 1
    7    17	 1
    7    48	 1
    7    49	 1
    8     9	 1
    8    11	 1
    8    16	 1
    8    44	 1
    9    20	 1
    9    43	 1
    9    10	 1
   10    13	 1
   10    14	 1
   10    18	 1
   10    19	 1
   10    50	 1
   11    17	 1
   11    48	 1
   11    49	 1
   11    45	 1
   11    46	 1
   11    47	 1
   12    16	 1
   12    44	 1
   13    15	 1
   13    45	 1
   13    46	 1
   13    47	 1
   14    15	 1
   15    16	 1
   15    44	 1
   16    51	 1
   16    52	 1
   16    53	 1
   16    54	 1
   16    55	 1
   16    56	 1
   17    44	 1
   18    48	 1
   18    49	 1
   18    54	 1
   18    55	 1
   18    56	 1
   19    48	 1
   19    49	 1
   19    51	 1
   19    52	 1
   19    53	 1
   20    23	 1
   21    43	 1
   21    61	 1
   21    62	 1
   21    63	 1
   22    57	 1
   22    58	 1
   23    59	 1
   23    60	 1
   24    28	 1
   24    27	 1
   24    67	 1
   24    31	 1
   24    33	 1
   24    75	 1
   24    76	 1
   25    30	 1
   25    32	 1
   25    74	 1
   25    71	 1
   25    72	 1
   25    73	 1
   25    68	 1
   25    69	 1
   25    70	 1
   26    29	 1
   26    64	 1
   27    65	 1
   27    66	 1
   27    71	 1
   27    72	 1
   27    73	 1
   28    65	 1
   28    66	 1
   28    68	 1
   28    69	 1
   28    70	 1
   29    65	 1
   29    66	 1
   29    35	 1
   29    34	 1
   29    77	 1
   30    64	 1
   30    33	 1
   30    75	 1
   30    76	 1
   31    32	 1
   31    74	 1
   32    64	 1
   32    36	 1
   32    37	 1
   32    78	 1
   32    79	 1
   32    80	 1
   33    74	 1
   33    39	 1
   33    38	 1
   34    75	 1
   34    76	 1
   34    36	 1
   34    37	 1
   35    75	 1
   35    76	 1
   35    78	 1
   35    79	 1
   35    80	 1
   35    40	 1
   35    81	 1
   35    82	 1
   36    77	 1
   36    39	 1
   36    38	 1
   37    77	 1
   37    41	 1
   37    83	 1
   37    84	 1
   38    40	 1
   38    81	 1
   38    82	 1
   39    42	 1
   39    85	 1
   39    86	 1
   40    87	 1
   40    88	 1
   40    89	 1
   41    81	 1
   41    82	 1
   42    83	 1
   42    84	 1
   43    57	 1
   43    58	 1
   44    48	 1
   44    49	 1
   48    50	 1
   49    50	 1
   50    51	 1
   50    52	 1
   50    53	 1
   50    54	 1
   50    55	 1
   50    56	 1
   57    59	 1
   57    60	 1
   58    59	 1
   58    60	 1
   64    65	 1
   64    66	 1
   64    74	 1
   65    67	 1
   66    67	 1
   67    71	 1
   67    72	 1
   67    73	 1
   67    68	 1
   67    69	 1
   67    70	 1
   74    75	 1
   74    76	 1
   75    77	 1
   76    77	 1
   77    78	 1
   77    79	 1
   77    80	 1
   81    83	 1
   81    84	 1
   82    83	 1
   82    84	 1
   83    85	 1
   83    86	 1
   84    85	 1
   84    86	 1
   85    87	 1
   85    88	 1
   85    89	 1
   86    87	 1
   86    88	 1
   86    89	 1

[ angles ]
;	ai	  aj	ak funct			c0			  c1			c2			  c3
    5     1     2	5 ;      CG311      CG2O1      OG2D1
    5     1     3	5 ;      CG311      CG2O1      NG2S1
    2     1     3	5 ;      OG2D1      CG2O1      NG2S1
    1     3     4	5 ;      CG2O1      NG2S1       HGP1
    1     3    24	5 ;      CG2O1      NG2S1      CG311
    4     3    24	5 ;       HGP1      NG2S1      CG311
   20     5     6	5 ;      CG321      CG311      NG2S1
   20     5     1	5 ;      CG321      CG311      CG2O1
   20     5    43	5 ;      CG321      CG311       HGA1
    6     5     1	5 ;      NG2S1      CG311      CG2O1
    6     5    43	5 ;      NG2S1      CG311       HGA1
    1     5    43	5 ;      CG2O1      CG311       HGA1
    9     6     7	5 ;       HGP1      NG2S1      CG2O1
    9     6     5	5 ;       HGP1      NG2S1      CG311
    7     6     5	5 ;      CG2O1      NG2S1      CG311
    8     7     6	5 ;      OG2D1      CG2O1      NG2S1
    8     7    10	5 ;      OG2D1      CG2O1      CG311
    6     7    10	5 ;      NG2S1      CG2O1      CG311
    7    10    11	5 ;      CG2O1      CG311      NG2S1
    7    10    16	5 ;      CG2O1      CG311      CG321
    7    10    44	5 ;      CG2O1      CG311       HGA1
   11    10    16	5 ;      NG2S1      CG311      CG321
   11    10    44	5 ;      NG2S1      CG311       HGA1
   16    10    44	5 ;      CG321      CG311       HGA1
   15    11    10	5 ;       HGP1      NG2S1      CG311
   15    11    12	5 ;       HGP1      NG2S1      CG2O1
   10    11    12	5 ;      CG311      NG2S1      CG2O1
   11    12    13	5 ;      NG2S1      CG2O1      OG2D1
   11    12    14	5 ;      NG2S1      CG2O1      CG331
   13    12    14	5 ;      OG2D1      CG2O1      CG331
   12    14    45	5 ;      CG2O1      CG331       HGA3
   12    14    46	5 ;      CG2O1      CG331       HGA3
   12    14    47	5 ;      CG2O1      CG331       HGA3
   45    14    46	5 ;       HGA3      CG331       HGA3
   45    14    47	5 ;       HGA3      CG331       HGA3
   46    14    47	5 ;       HGA3      CG331       HGA3
   10    16    17	5 ;      CG311      CG321      CG311
   10    16    48	5 ;      CG311      CG321       HGA2
   10    16    49	5 ;      CG311      CG321       HGA2
   17    16    48	5 ;      CG311      CG321       HGA2
   17    16    49	5 ;      CG311      CG321       HGA2
   48    16    49	5 ;       HGA2      CG321       HGA2
   16    17    18	5 ;      CG321      CG311      CG331
   16    17    19	5 ;      CG321      CG311      CG331
   16    17    50	5 ;      CG321      CG311       HGA1
   18    17    19	5 ;      CG331      CG311      CG331
   18    17    50	5 ;      CG331      CG311       HGA1
   19    17    50	5 ;      CG331      CG311       HGA1
   17    18    51	5 ;      CG311      CG331       HGA3
   17    18    52	5 ;      CG311      CG331       HGA3
   17    18    53	5 ;      CG311      CG331       HGA3
   51    18    52	5 ;       HGA3      CG331       HGA3
   51    18    53	5 ;       HGA3      CG331       HGA3
   52    18    53	5 ;       HGA3      CG331       HGA3
   17    19    54	5 ;      CG311      CG331       HGA3
   17    19    55	5 ;      CG311      CG331       HGA3
   17    19    56	5 ;      CG311      CG331       HGA3
   54    19    55	5 ;       HGA3      CG331       HGA3
   54    19    56	5 ;       HGA3      CG331       HGA3
   55    19    56	5 ;       HGA3      CG331       HGA3
   21    20     5	5 ;      CG321      CG321      CG311
   21    20    57	5 ;      CG321      CG321       HGA2
   21    20    58	5 ;      CG321      CG321       HGA2
    5    20    57	5 ;      CG311      CG321       HGA2
    5    20    58	5 ;      CG311      CG321       HGA2
   57    20    58	5 ;       HGA2      CG321       HGA2
   22    21    20	5 ;      SG311      CG321      CG321
   22    21    59	5 ;      SG311      CG321       HGA2
   22    21    60	5 ;      SG311      CG321       HGA2
   20    21    59	5 ;      CG321      CG321       HGA2
   20    21    60	5 ;      CG321      CG321       HGA2
   59    21    60	5 ;       HGA2      CG321       HGA2
   23    22    21	5 ;      CG331      SG311      CG321
   22    23    61	5 ;      SG311      CG331       HGA3
   22    23    62	5 ;      SG311      CG331       HGA3
   22    23    63	5 ;      SG311      CG331       HGA3
   61    23    62	5 ;       HGA3      CG331       HGA3
   61    23    63	5 ;       HGA3      CG331       HGA3
   62    23    63	5 ;       HGA3      CG331       HGA3
    3    24    25	5 ;      NG2S1      CG311      CG321
    3    24    29	5 ;      NG2S1      CG311      CG311
    3    24    64	5 ;      NG2S1      CG311       HGA1
   25    24    29	5 ;      CG321      CG311      CG311
   25    24    64	5 ;      CG321      CG311       HGA1
   29    24    64	5 ;      CG311      CG311       HGA1
   26    25    24	5 ;      CG311      CG321      CG311
   26    25    65	5 ;      CG311      CG321       HGA2
   26    25    66	5 ;      CG311      CG321       HGA2
   24    25    65	5 ;      CG311      CG321       HGA2
   24    25    66	5 ;      CG311      CG321       HGA2
   65    25    66	5 ;       HGA2      CG321       HGA2
   28    26    27	5 ;      CG331      CG311      CG331
   28    26    25	5 ;      CG331      CG311      CG321
   28    26    67	5 ;      CG331      CG311       HGA1
   27    26    25	5 ;      CG331      CG311      CG321
   27    26    67	5 ;      CG331      CG311       HGA1
   25    26    67	5 ;      CG321      CG311       HGA1
   26    27    68	5 ;      CG311      CG331       HGA3
   26    27    69	5 ;      CG311      CG331       HGA3
   26    27    70	5 ;      CG311      CG331       HGA3
   68    27    69	5 ;       HGA3      CG331       HGA3
   68    27    70	5 ;       HGA3      CG331       HGA3
   69    27    70	5 ;       HGA3      CG331       HGA3
   26    28    71	5 ;      CG311      CG331       HGA3
   26    28    72	5 ;      CG311      CG331       HGA3
   26    28    73	5 ;      CG311      CG331       HGA3
   71    28    72	5 ;       HGA3      CG331       HGA3
   71    28    73	5 ;       HGA3      CG331       HGA3
   72    28    73	5 ;       HGA3      CG331       HGA3
   24    29    30	5 ;      CG311      CG311      OG311
   24    29    32	5 ;      CG311      CG311      CG321
   24    29    74	5 ;      CG311      CG311       HGA1
   30    29    32	5 ;      OG311      CG311      CG321
   30    29    74	5 ;      OG311      CG311       HGA1
   32    29    74	5 ;      CG321      CG311       HGA1
   29    30    31	5 ;      CG311      OG311       HGP1
   29    32    33	5 ;      CG311      CG321      CG311
   29    32    75	5 ;      CG311      CG321       HGA2
   29    32    76	5 ;      CG311      CG321       HGA2
   33    32    75	5 ;      CG311      CG321       HGA2
   33    32    76	5 ;      CG311      CG321       HGA2
   75    32    76	5 ;       HGA2      CG321       HGA2
   32    33    35	5 ;      CG321      CG311      CG2O1
   32    33    34	5 ;      CG321      CG311      CG331
   32    33    77	5 ;      CG321      CG311       HGA1
   35    33    34	5 ;      CG2O1      CG311      CG331
   35    33    77	5 ;      CG2O1      CG311       HGA1
   34    33    77	5 ;      CG331      CG311       HGA1
   33    34    78	5 ;      CG311      CG331       HGA3
   33    34    79	5 ;      CG311      CG331       HGA3
   33    34    80	5 ;      CG311      CG331       HGA3
   78    34    79	5 ;       HGA3      CG331       HGA3
   78    34    80	5 ;       HGA3      CG331       HGA3
   79    34    80	5 ;       HGA3      CG331       HGA3
   36    35    33	5 ;      OG2D1      CG2O1      CG311
   36    35    37	5 ;      OG2D1      CG2O1      NG2S1
   33    35    37	5 ;      CG311      CG2O1      NG2S1
   35    37    39	5 ;      CG2O1      NG2S1      CG321
   35    37    38	5 ;      CG2O1      NG2S1       HGP1
   39    37    38	5 ;      CG321      NG2S1       HGP1
   37    39    40	5 ;      NG2S1      CG321      CG321
   37    39    81	5 ;      NG2S1      CG321       HGA2
   37    39    82	5 ;      NG2S1      CG321       HGA2
   40    39    81	5 ;      CG321      CG321       HGA2
   40    39    82	5 ;      CG321      CG321       HGA2
   81    39    82	5 ;       HGA2      CG321       HGA2
   39    40    41	5 ;      CG321      CG321      CG321
   39    40    83	5 ;      CG321      CG321       HGA2
   39    40    84	5 ;      CG321      CG321       HGA2
   41    40    83	5 ;      CG321      CG321       HGA2
   41    40    84	5 ;      CG321      CG321       HGA2
   83    40    84	5 ;       HGA2      CG321       HGA2
   42    41    40	5 ;      CG331      CG321      CG321
   42    41    85	5 ;      CG331      CG321       HGA2
   42    41    86	5 ;      CG331      CG321       HGA2
   40    41    85	5 ;      CG321      CG321       HGA2
   40    41    86	5 ;      CG321      CG321       HGA2
   85    41    86	5 ;       HGA2      CG321       HGA2
   41    42    87	5 ;      CG321      CG331       HGA3
   41    42    88	5 ;      CG321      CG331       HGA3
   41    42    89	5 ;      CG321      CG331       HGA3
   87    42    88	5 ;       HGA3      CG331       HGA3
   87    42    89	5 ;       HGA3      CG331       HGA3
   88    42    89	5 ;       HGA3      CG331       HGA3

[ dihedrals ]
;	ai	  aj	ak	  al funct			  c0			c1			  c2			c3			  c4			c5
    2     1     5    20	 9 ;      OG2D1      CG2O1      CG311      CG321
    2     1     5     6	 9 ;      OG2D1      CG2O1      CG311      NG2S1
    2     1     5    43	 9 ;      OG2D1      CG2O1      CG311       HGA1
    3     1     5    20	 9 ;      NG2S1      CG2O1      CG311      CG321
    3     1     5     6	 9 ;      NG2S1      CG2O1      CG311      NG2S1
    3     1     5    43	 9 ;      NG2S1      CG2O1      CG311       HGA1
    5     1     3     4	 9 ;      CG311      CG2O1      NG2S1       HGP1
    5     1     3    24	 9 ;      CG311      CG2O1      NG2S1      CG311
    2     1     3     4	 9 ;      OG2D1      CG2O1      NG2S1       HGP1
    2     1     3    24	 9 ;      OG2D1      CG2O1      NG2S1      CG311
    1     3    24    25	 9 ;      CG2O1      NG2S1      CG311      CG321
    1     3    24    29	 9 ;      CG2O1      NG2S1      CG311      CG311
    1     3    24    64	 9 ;      CG2O1      NG2S1      CG311       HGA1
    4     3    24    25	 9 ;       HGP1      NG2S1      CG311      CG321
    4     3    24    29	 9 ;       HGP1      NG2S1      CG311      CG311
    4     3    24    64	 9 ;       HGP1      NG2S1      CG311       HGA1
    6     5    20    21	 9 ;      NG2S1      CG311      CG321      CG321
    6     5    20    57	 9 ;      NG2S1      CG311      CG321       HGA2
    6     5    20    58	 9 ;      NG2S1      CG311      CG321       HGA2
    1     5    20    21	 9 ;      CG2O1      CG311      CG321      CG321
    1     5    20    57	 9 ;      CG2O1      CG311      CG321       HGA2
    1     5    20    58	 9 ;      CG2O1      CG311      CG321       HGA2
   43     5    20    21	 9 ;       HGA1      CG311      CG321      CG321
   43     5    20    57	 9 ;       HGA1      CG311      CG321       HGA2
   43     5    20    58	 9 ;       HGA1      CG311      CG321       HGA2
   20     5     6     9	 9 ;      CG321      CG311      NG2S1       HGP1
   20     5     6     7	 9 ;      CG321      CG311      NG2S1      CG2O1
    1     5     6     9	 9 ;      CG2O1      CG311      NG2S1       HGP1
    1     5     6     7	 9 ;      CG2O1      CG311      NG2S1      CG2O1
   43     5     6     9	 9 ;       HGA1      CG311      NG2S1       HGP1
   43     5     6     7	 9 ;       HGA1      CG311      NG2S1      CG2O1
    9     6     7     8	 9 ;       HGP1      NG2S1      CG2O1      OG2D1
    9     6     7    10	 9 ;       HGP1      NG2S1      CG2O1      CG311
    5     6     7     8	 9 ;      CG311      NG2S1      CG2O1      OG2D1
    5     6     7    10	 9 ;      CG311      NG2S1      CG2O1      CG311
    8     7    10    11	 9 ;      OG2D1      CG2O1      CG311      NG2S1
    8     7    10    16	 9 ;      OG2D1      CG2O1      CG311      CG321
    8     7    10    44	 9 ;      OG2D1      CG2O1      CG311       HGA1
    6     7    10    11	 9 ;      NG2S1      CG2O1      CG311      NG2S1
    6     7    10    16	 9 ;      NG2S1      CG2O1      CG311      CG321
    6     7    10    44	 9 ;      NG2S1      CG2O1      CG311       HGA1
    7    10    11    15	 9 ;      CG2O1      CG311      NG2S1       HGP1
    7    10    11    12	 9 ;      CG2O1      CG311      NG2S1      CG2O1
   16    10    11    15	 9 ;      CG321      CG311      NG2S1       HGP1
   16    10    11    12	 9 ;      CG321      CG311      NG2S1      CG2O1
   44    10    11    15	 9 ;       HGA1      CG311      NG2S1       HGP1
   44    10    11    12	 9 ;       HGA1      CG311      NG2S1      CG2O1
    7    10    16    17	 9 ;      CG2O1      CG311      CG321      CG311
    7    10    16    48	 9 ;      CG2O1      CG311      CG321       HGA2
    7    10    16    49	 9 ;      CG2O1      CG311      CG321       HGA2
   11    10    16    17	 9 ;      NG2S1      CG311      CG321      CG311
   11    10    16    48	 9 ;      NG2S1      CG311      CG321       HGA2
   11    10    16    49	 9 ;      NG2S1      CG311      CG321       HGA2
   44    10    16    17	 9 ;       HGA1      CG311      CG321      CG311
   44    10    16    48	 9 ;       HGA1      CG311      CG321       HGA2
   44    10    16    49	 9 ;       HGA1      CG311      CG321       HGA2
   15    11    12    13	 9 ;       HGP1      NG2S1      CG2O1      OG2D1
   15    11    12    14	 9 ;       HGP1      NG2S1      CG2O1      CG331
   10    11    12    13	 9 ;      CG311      NG2S1      CG2O1      OG2D1
   10    11    12    14	 9 ;      CG311      NG2S1      CG2O1      CG331
   11    12    14    45	 9 ;      NG2S1      CG2O1      CG331       HGA3
   11    12    14    46	 9 ;      NG2S1      CG2O1      CG331       HGA3
   11    12    14    47	 9 ;      NG2S1      CG2O1      CG331       HGA3
   13    12    14    45	 9 ;      OG2D1      CG2O1      CG331       HGA3
   13    12    14    46	 9 ;      OG2D1      CG2O1      CG331       HGA3
   13    12    14    47	 9 ;      OG2D1      CG2O1      CG331       HGA3
   10    16    17    18	 9 ;      CG311      CG321      CG311      CG331
   10    16    17    19	 9 ;      CG311      CG321      CG311      CG331
   10    16    17    50	 9 ;      CG311      CG321      CG311       HGA1
   48    16    17    18	 9 ;       HGA2      CG321      CG311      CG331
   48    16    17    19	 9 ;       HGA2      CG321      CG311      CG331
   48    16    17    50	 9 ;       HGA2      CG321      CG311       HGA1
   49    16    17    18	 9 ;       HGA2      CG321      CG311      CG331
   49    16    17    19	 9 ;       HGA2      CG321      CG311      CG331
   49    16    17    50	 9 ;       HGA2      CG321      CG311       HGA1
   16    17    18    51	 9 ;      CG321      CG311      CG331       HGA3
   16    17    18    52	 9 ;      CG321      CG311      CG331       HGA3
   16    17    18    53	 9 ;      CG321      CG311      CG331       HGA3
   19    17    18    51	 9 ;      CG331      CG311      CG331       HGA3
   19    17    18    52	 9 ;      CG331      CG311      CG331       HGA3
   19    17    18    53	 9 ;      CG331      CG311      CG331       HGA3
   50    17    18    51	 9 ;       HGA1      CG311      CG331       HGA3
   50    17    18    52	 9 ;       HGA1      CG311      CG331       HGA3
   50    17    18    53	 9 ;       HGA1      CG311      CG331       HGA3
   16    17    19    54	 9 ;      CG321      CG311      CG331       HGA3
   16    17    19    55	 9 ;      CG321      CG311      CG331       HGA3
   16    17    19    56	 9 ;      CG321      CG311      CG331       HGA3
   18    17    19    54	 9 ;      CG331      CG311      CG331       HGA3
   18    17    19    55	 9 ;      CG331      CG311      CG331       HGA3
   18    17    19    56	 9 ;      CG331      CG311      CG331       HGA3
   50    17    19    54	 9 ;       HGA1      CG311      CG331       HGA3
   50    17    19    55	 9 ;       HGA1      CG311      CG331       HGA3
   50    17    19    56	 9 ;       HGA1      CG311      CG331       HGA3
    5    20    21    22	 9 ;      CG311      CG321      CG321      SG311
    5    20    21    59	 9 ;      CG311      CG321      CG321       HGA2
    5    20    21    60	 9 ;      CG311      CG321      CG321       HGA2
   57    20    21    22	 9 ;       HGA2      CG321      CG321      SG311
   57    20    21    59	 9 ;       HGA2      CG321      CG321       HGA2
   57    20    21    60	 9 ;       HGA2      CG321      CG321       HGA2
   58    20    21    22	 9 ;       HGA2      CG321      CG321      SG311
   58    20    21    59	 9 ;       HGA2      CG321      CG321       HGA2
   58    20    21    60	 9 ;       HGA2      CG321      CG321       HGA2
   20    21    22    23	 9 ;      CG321      CG321      SG311      CG331
   59    21    22    23	 9 ;       HGA2      CG321      SG311      CG331
   60    21    22    23	 9 ;       HGA2      CG321      SG311      CG331
   21    22    23    61	 9 ;      CG321      SG311      CG331       HGA3
   21    22    23    62	 9 ;      CG321      SG311      CG331       HGA3
   21    22    23    63	 9 ;      CG321      SG311      CG331       HGA3
    3    24    25    26	 9 ;      NG2S1      CG311      CG321      CG311
    3    24    25    65	 9 ;      NG2S1      CG311      CG321       HGA2
    3    24    25    66	 9 ;      NG2S1      CG311      CG321       HGA2
   29    24    25    26	 9 ;      CG311      CG311      CG321      CG311
   29    24    25    65	 9 ;      CG311      CG311      CG321       HGA2
   29    24    25    66	 9 ;      CG311      CG311      CG321       HGA2
   64    24    25    26	 9 ;       HGA1      CG311      CG321      CG311
   64    24    25    65	 9 ;       HGA1      CG311      CG321       HGA2
   64    24    25    66	 9 ;       HGA1      CG311      CG321       HGA2
    3    24    29    30	 9 ;      NG2S1      CG311      CG311      OG311
    3    24    29    32	 9 ;      NG2S1      CG311      CG311      CG321
    3    24    29    74	 9 ;      NG2S1      CG311      CG311       HGA1
   25    24    29    30	 9 ;      CG321      CG311      CG311      OG311
   25    24    29    32	 9 ;      CG321      CG311      CG311      CG321
   25    24    29    74	 9 ;      CG321      CG311      CG311       HGA1
   64    24    29    30	 9 ;       HGA1      CG311      CG311      OG311
   64    24    29    32	 9 ;       HGA1      CG311      CG311      CG321
   64    24    29    74	 9 ;       HGA1      CG311      CG311       HGA1
   24    25    26    28	 9 ;      CG311      CG321      CG311      CG331
   24    25    26    27	 9 ;      CG311      CG321      CG311      CG331
   24    25    26    67	 9 ;      CG311      CG321      CG311       HGA1
   65    25    26    28	 9 ;       HGA2      CG321      CG311      CG331
   65    25    26    27	 9 ;       HGA2      CG321      CG311      CG331
   65    25    26    67	 9 ;       HGA2      CG321      CG311       HGA1
   66    25    26    28	 9 ;       HGA2      CG321      CG311      CG331
   66    25    26    27	 9 ;       HGA2      CG321      CG311      CG331
   66    25    26    67	 9 ;       HGA2      CG321      CG311       HGA1
   27    26    28    71	 9 ;      CG331      CG311      CG331       HGA3
   27    26    28    72	 9 ;      CG331      CG311      CG331       HGA3
   27    26    28    73	 9 ;      CG331      CG311      CG331       HGA3
   25    26    28    71	 9 ;      CG321      CG311      CG331       HGA3
   25    26    28    72	 9 ;      CG321      CG311      CG331       HGA3
   25    26    28    73	 9 ;      CG321      CG311      CG331       HGA3
   67    26    28    71	 9 ;       HGA1      CG311      CG331       HGA3
   67    26    28    72	 9 ;       HGA1      CG311      CG331       HGA3
   67    26    28    73	 9 ;       HGA1      CG311      CG331       HGA3
   28    26    27    68	 9 ;      CG331      CG311      CG331       HGA3
   28    26    27    69	 9 ;      CG331      CG311      CG331       HGA3
   28    26    27    70	 9 ;      CG331      CG311      CG331       HGA3
   25    26    27    68	 9 ;      CG321      CG311      CG331       HGA3
   25    26    27    69	 9 ;      CG321      CG311      CG331       HGA3
   25    26    27    70	 9 ;      CG321      CG311      CG331       HGA3
   67    26    27    68	 9 ;       HGA1      CG311      CG331       HGA3
   67    26    27    69	 9 ;       HGA1      CG311      CG331       HGA3
   67    26    27    70	 9 ;       HGA1      CG311      CG331       HGA3
   24    29    30    31	 9 ;      CG311      CG311      OG311       HGP1
   32    29    30    31	 9 ;      CG321      CG311      OG311       HGP1
   74    29    30    31	 9 ;       HGA1      CG311      OG311       HGP1
   24    29    32    33	 9 ;      CG311      CG311      CG321      CG311
   24    29    32    75	 9 ;      CG311      CG311      CG321       HGA2
   24    29    32    76	 9 ;      CG311      CG311      CG321       HGA2
   30    29    32    33	 9 ;      OG311      CG311      CG321      CG311
   30    29    32    75	 9 ;      OG311      CG311      CG321       HGA2
   30    29    32    76	 9 ;      OG311      CG311      CG321       HGA2
   74    29    32    33	 9 ;       HGA1      CG311      CG321      CG311
   74    29    32    75	 9 ;       HGA1      CG311      CG321       HGA2
   74    29    32    76	 9 ;       HGA1      CG311      CG321       HGA2
   29    32    33    35	 9 ;      CG311      CG321      CG311      CG2O1
   29    32    33    34	 9 ;      CG311      CG321      CG311      CG331
   29    32    33    77	 9 ;      CG311      CG321      CG311       HGA1
   75    32    33    35	 9 ;       HGA2      CG321      CG311      CG2O1
   75    32    33    34	 9 ;       HGA2      CG321      CG311      CG331
   75    32    33    77	 9 ;       HGA2      CG321      CG311       HGA1
   76    32    33    35	 9 ;       HGA2      CG321      CG311      CG2O1
   76    32    33    34	 9 ;       HGA2      CG321      CG311      CG331
   76    32    33    77	 9 ;       HGA2      CG321      CG311       HGA1
   32    33    35    36	 9 ;      CG321      CG311      CG2O1      OG2D1
   32    33    35    37	 9 ;      CG321      CG311      CG2O1      NG2S1
   34    33    35    36	 9 ;      CG331      CG311      CG2O1      OG2D1
   34    33    35    37	 9 ;      CG331      CG311      CG2O1      NG2S1
   77    33    35    36	 9 ;       HGA1      CG311      CG2O1      OG2D1
   77    33    35    37	 9 ;       HGA1      CG311      CG2O1      NG2S1
   32    33    34    78	 9 ;      CG321      CG311      CG331       HGA3
   32    33    34    79	 9 ;      CG321      CG311      CG331       HGA3
   32    33    34    80	 9 ;      CG321      CG311      CG331       HGA3
   35    33    34    78	 9 ;      CG2O1      CG311      CG331       HGA3
   35    33    34    79	 9 ;      CG2O1      CG311      CG331       HGA3
   35    33    34    80	 9 ;      CG2O1      CG311      CG331       HGA3
   77    33    34    78	 9 ;       HGA1      CG311      CG331       HGA3
   77    33    34    79	 9 ;       HGA1      CG311      CG331       HGA3
   77    33    34    80	 9 ;       HGA1      CG311      CG331       HGA3
   36    35    37    39	 9 ;      OG2D1      CG2O1      NG2S1      CG321
   36    35    37    38	 9 ;      OG2D1      CG2O1      NG2S1       HGP1
   33    35    37    39	 9 ;      CG311      CG2O1      NG2S1      CG321
   33    35    37    38	 9 ;      CG311      CG2O1      NG2S1       HGP1
   35    37    39    40	 9 ;      CG2O1      NG2S1      CG321      CG321
   35    37    39    81	 9 ;      CG2O1      NG2S1      CG321       HGA2
   35    37    39    82	 9 ;      CG2O1      NG2S1      CG321       HGA2
   38    37    39    40	 9 ;       HGP1      NG2S1      CG321      CG321
   38    37    39    81	 9 ;       HGP1      NG2S1      CG321       HGA2
   38    37    39    82	 9 ;       HGP1      NG2S1      CG321       HGA2
   37    39    40    41	 9 ;      NG2S1      CG321      CG321      CG321
   37    39    40    83	 9 ;      NG2S1      CG321      CG321       HGA2
   37    39    40    84	 9 ;      NG2S1      CG321      CG321       HGA2
   81    39    40    41	 9 ;       HGA2      CG321      CG321      CG321
   81    39    40    83	 9 ;       HGA2      CG321      CG321       HGA2
   81    39    40    84	 9 ;       HGA2      CG321      CG321       HGA2
   82    39    40    41	 9 ;       HGA2      CG321      CG321      CG321
   82    39    40    83	 9 ;       HGA2      CG321      CG321       HGA2
   82    39    40    84	 9 ;       HGA2      CG321      CG321       HGA2
   39    40    41    42	 9 ;      CG321      CG321      CG321      CG331
   39    40    41    85	 9 ;      CG321      CG321      CG321       HGA2
   39    40    41    86	 9 ;      CG321      CG321      CG321       HGA2
   83    40    41    42	 9 ;       HGA2      CG321      CG321      CG331
   83    40    41    85	 9 ;       HGA2      CG321      CG321       HGA2
   83    40    41    86	 9 ;       HGA2      CG321      CG321       HGA2
   84    40    41    42	 9 ;       HGA2      CG321      CG321      CG331
   84    40    41    85	 9 ;       HGA2      CG321      CG321       HGA2
   84    40    41    86	 9 ;       HGA2      CG321      CG321       HGA2
   40    41    42    87	 9 ;      CG321      CG321      CG331       HGA3
   40    41    42    88	 9 ;      CG321      CG321      CG331       HGA3
   40    41    42    89	 9 ;      CG321      CG321      CG331       HGA3
   85    41    42    87	 9 ;       HGA2      CG321      CG331       HGA3
   85    41    42    88	 9 ;       HGA2      CG321      CG331       HGA3
   85    41    42    89	 9 ;       HGA2      CG321      CG331       HGA3
   86    41    42    87	 9 ;       HGA2      CG321      CG331       HGA3
   86    41    42    88	 9 ;       HGA2      CG321      CG331       HGA3
   86    41    42    89	 9 ;       HGA2      CG321      CG331       HGA3

[ dihedrals ]
;	ai	  aj	ak	  al funct			  c0			c1			  c2			c3
    1     5     3     2	 2
    7    10     6     8	 2
   12    14    11    13	 2
   35    33    37    36	 2

