Glycine aRginine prOline Methionine Alanine Cystine Serine
   61
    1LIG     C1    1  -1.292   0.538  -1.587
    1LIG     N1    2  -1.208   0.642  -1.521
    1LIG     C2    3  -1.088   0.650  -1.586
    1LIG     N2    4  -1.086   0.578  -1.699
    1LIG     C3    5  -1.217   0.526  -1.721
    1LIG     N3    6  -1.257   0.459  -1.823
    1LIG    HN1    7  -1.355   0.440  -1.840
    1LIG     C4    8  -1.152   0.410  -1.911
    1LIG     C5    9  -1.026   0.383  -1.830
    1LIG     C6   10  -0.976   0.515  -1.770
    1LIG     H1   11  -1.234   0.692  -1.437
    1LIG     C7   12  -1.263   0.400  -1.521
    1LIG     C8   13  -1.285   0.278  -1.587
    1LIG     C9   14  -1.274   0.156  -1.518
    1LIG    C10   15  -1.237   0.153  -1.384
    1LIG    C11   16  -1.219   0.274  -1.317
    1LIG    C12   17  -1.231   0.395  -1.384
    1LIG      O   18  -1.218   0.043  -1.308
    1LIG    C13   19  -1.109  -0.045  -1.334
    1LIG     F1   20  -1.106  -0.089  -1.462
    1LIG     F2   21  -1.115  -0.151  -1.251
    1LIG     F3   22  -0.994   0.022  -1.311
    1LIG    C14   23  -1.436   0.580  -1.598
    1LIG    C15   24  -1.464   0.716  -1.617
    1LIG    C16   25  -1.594   0.769  -1.612
    1LIG    C17   26  -1.699   0.680  -1.589
    1LIG    C18   27  -1.674   0.543  -1.574
    1LIG    C19   28  -1.544   0.493  -1.580
    1LIG    C20   29  -1.610   0.915  -1.630
    1LIG    C21   30  -1.519   0.990  -1.701
    1LIG     N4   31  -1.524   1.124  -1.717
    1LIG    C22   32  -1.628   1.184  -1.658
    1LIG    HN3   33  -1.454   1.176  -1.770
    1LIG     N5   34  -1.724   1.123  -1.587
    1LIG    C23   35  -1.713   0.989  -1.574
    1LIG    HN4   36  -1.801   1.175  -1.545
    1LIG     N6   37  -0.986   0.721  -1.536
    1LIG     H2   38  -0.890   0.685  -1.536
    1LIG     H3   39  -1.002   0.810  -1.489
    1LIG     HC   40  -1.256   0.620  -1.760
    1LIG    HN2   41  -1.251   0.373  -1.769
    1LIG    HC2   42  -1.185   0.318  -1.960
    1LIG    HC3   43  -1.131   0.486  -1.987
    1LIG    HC4   44  -0.949   0.340  -1.895
    1LIG    HC5   45  -1.048   0.312  -1.750
    1LIG    HC6   46  -0.893   0.495  -1.701
    1LIG    HC7   47  -0.942   0.581  -1.850
    1LIG    HC1   48  -1.310   0.278  -1.692
    1LIG    HC8   49  -1.295   0.064  -1.570
    1LIG    HC9   50  -1.194   0.273  -1.211
    1LIG   HC10   51  -1.215   0.488  -1.329
    1LIG   HC11   52  -1.382   0.783  -1.637
    1LIG   HC12   53  -1.800   0.717  -1.582
    1LIG   HC13   54  -1.757   0.475  -1.557
    1LIG   HC14   55  -1.526   0.386  -1.571
    1LIG   HC15   56  -1.437   0.938  -1.747
    1LIG   HC16   57  -1.635   1.291  -1.669
    1LIG   HC17   58  -1.788   0.937  -1.517
    1LIG    H26   59  -1.123   0.738  -1.641
    1LIG    H27   60  -1.459   1.004  -1.611
    1LIG    H28   61  -1.569   1.197  -1.567
   0.00000   0.00000   0.00000
