; Created by cgenff_charmm2gmx.py

[ moleculetype ]
; Name			   nrexcl
LIG				 3

[ atoms ]
;	 nr		  type	resnr residue  atom   cgnr	   charge		mass  typeB    chargeB		massB
; residue	 1 LIG rtp LIG q	qsum
     1     CG3C50      1    LIG     C1      1      1.014     12.011   ;
     2     NG3C51      1    LIG     N1      2     -0.954     14.007   ;
     3     CG3C51      1    LIG     C2      3      0.292     12.011   ;
     4     NG3C51      1    LIG     N2      4     -0.733     14.007   ;
     5     CG3RC1      1    LIG     C3      5      0.432     12.011   ;
     6      NG3P2      1    LIG     N3      6     -0.582     14.007   ;
     7       HGP2      1    LIG    HN1      7      0.335      1.008   ;
     8      CG324      1    LIG     C4      8      0.182     12.011   ;
     9      CG321      1    LIG     C5      9     -0.183     12.011   ;
    10      CG321      1    LIG     C6     10      0.283     12.011   ;
    11       HGP1      1    LIG     H1     11      0.206      1.008   ;
    12     CG2R61      1    LIG     C7     12     -0.004     12.011   ;
    13     CG2R61      1    LIG     C8     13     -0.178     12.011   ;
    14     CG2R61      1    LIG     C9     14     -0.108     12.011   ;
    15     CG2R61      1    LIG    C10     15      0.217     12.011   ;
    16     CG2R61      1    LIG    C11     16     -0.108     12.011   ;
    17     CG2R61      1    LIG    C12     17     -0.178     12.011   ;
    18      OG301      1    LIG      O     18     -0.303     15.999   ;
    19      CG302      1    LIG    C13     19      0.464     12.011   ;
    20       FGA3      1    LIG     F1     20     -0.126     18.998   ;
    21       FGA3      1    LIG     F2     21     -0.126     18.998   ;
    22       FGA3      1    LIG     F3     22     -0.126     18.998   ;
    23     CG2R61      1    LIG    C14     23     -0.001     12.011   ;
    24     CG2R61      1    LIG    C15     24     -0.185     12.011   ;
    25     CG2R61      1    LIG    C16     25      0.025     12.011   ;
    26     CG2R61      1    LIG    C17     26     -0.120     12.011   ;
    27     CG2R61      1    LIG    C18     27     -0.102     12.011   ;
    28     CG2R61      1    LIG    C19     28     -0.181     12.011   ;
    29     CG2DC1      1    LIG    C20     29     -0.086     12.011   ;
    30      CG321      1    LIG    C21     30      0.013     12.011   ;
    31      NG311      1    LIG     N4     31     -0.656     14.007   ;
    32      CG321      1    LIG    C22     32      0.131     12.011   ;
    33     HGPAM1      1    LIG    HN3     33      0.367      1.008   ;
    34      NG311      1    LIG     N5     34     -0.598     14.007   ;
    35     CG2D1O      1    LIG    C23     35     -0.097     12.011   ;
    36     HGPAM1      1    LIG    HN4     36      0.406      1.008   ;
    37      NG321      1    LIG     N6     37     -0.868     14.007   ;
    38     HGPAM2      1    LIG     H2     38      0.349      1.008   ;
    39     HGPAM2      1    LIG     H3     39      0.349      1.008   ;
    40       HGA1      1    LIG     HC     40      0.090      1.008   ;
    41       HGP2      1    LIG    HN2     41      0.335      1.008   ;
    42       HGA2      1    LIG    HC2     42      0.090      1.008   ;
    43       HGA2      1    LIG    HC3     43      0.090      1.008   ;
    44       HGA2      1    LIG    HC4     44      0.090      1.008   ;
    45       HGA2      1    LIG    HC5     45      0.090      1.008   ;
    46       HGA2      1    LIG    HC6     46      0.090      1.008   ;
    47       HGA2      1    LIG    HC7     47      0.090      1.008   ;
    48      HGR61      1    LIG    HC1     48      0.116      1.008   ;
    49      HGR61      1    LIG    HC8     49      0.116      1.008   ;
    50      HGR61      1    LIG    HC9     50      0.116      1.008   ;
    51      HGR61      1    LIG   HC10     51      0.116      1.008   ;
    52      HGR61      1    LIG   HC11     52      0.116      1.008   ;
    53      HGR61      1    LIG   HC12     53      0.116      1.008   ;
    54      HGR61      1    LIG   HC13     54      0.116      1.008   ;
    55      HGR61      1    LIG   HC14     55      0.116      1.008   ;
    56       HGA2      1    LIG   HC15     56      0.090      1.008   ;
    57       HGA2      1    LIG   HC16     57      0.090      1.008   ;
    58       HGA4      1    LIG   HC17     58      0.148      1.008   ;
    59       HGA1      1    LIG    H26     59      0.137      1.008   ;
    60       HGA2      1    LIG    H27     60      0.090      1.008   ;
    61       HGA2      1    LIG    H28     61      0.090      1.008   ;

[ bonds ]
;	ai	  aj funct			  c0			c1			  c2			c3
    1     5	 1 ;      CG3C50     CG3RC1
    1     2	 1 ;      CG3C50     NG3C51
    1    12	 1 ;      CG3C50     CG2R61
    1    23	 1 ;      CG3C50     CG2R61
    2     3	 1 ;      NG3C51     CG3C51
    2    11	 1 ;      NG3C51       HGP1
    3    37	 1 ;      CG3C51      NG321
    3     4	 1 ;      CG3C51     NG3C51
    3    59	 1 ;      CG3C51       HGA1
    4    10	 1 ;      NG3C51      CG321
    4     5	 1 ;      NG3C51     CG3RC1
    5     6	 1 ;      CG3RC1      NG3P2
    5    40	 1 ;      CG3RC1       HGA1
    6     8	 1 ;       NG3P2      CG324
    6     7	 1 ;       NG3P2       HGP2
    6    41	 1 ;       NG3P2       HGP2
    8     9	 1 ;       CG324      CG321
    8    42	 1 ;       CG324       HGA2
    8    43	 1 ;       CG324       HGA2
    9    10	 1 ;       CG321      CG321
    9    44	 1 ;       CG321       HGA2
    9    45	 1 ;       CG321       HGA2
   10    46	 1 ;       CG321       HGA2
   10    47	 1 ;       CG321       HGA2
   12    13	 1 ;      CG2R61     CG2R61
   12    17	 1 ;      CG2R61     CG2R61
   13    14	 1 ;      CG2R61     CG2R61
   13    48	 1 ;      CG2R61      HGR61
   14    15	 1 ;      CG2R61     CG2R61
   14    49	 1 ;      CG2R61      HGR61
   15    16	 1 ;      CG2R61     CG2R61
   15    18	 1 ;      CG2R61      OG301
   16    17	 1 ;      CG2R61     CG2R61
   16    50	 1 ;      CG2R61      HGR61
   17    51	 1 ;      CG2R61      HGR61
   18    19	 1 ;       OG301      CG302
   19    22	 1 ;       CG302       FGA3
   19    20	 1 ;       CG302       FGA3
   19    21	 1 ;       CG302       FGA3
   23    24	 1 ;      CG2R61     CG2R61
   23    28	 1 ;      CG2R61     CG2R61
   24    25	 1 ;      CG2R61     CG2R61
   24    52	 1 ;      CG2R61      HGR61
   25    29	 1 ;      CG2R61     CG2DC1
   25    26	 1 ;      CG2R61     CG2R61
   26    27	 1 ;      CG2R61     CG2R61
   26    53	 1 ;      CG2R61      HGR61
   27    28	 1 ;      CG2R61     CG2R61
   27    54	 1 ;      CG2R61      HGR61
   28    55	 1 ;      CG2R61      HGR61
   29    30	 1 ;      CG2DC1      CG321
   29    35	 1 ;      CG2DC1     CG2D1O
   30    31	 1 ;       CG321      NG311
   30    56	 1 ;       CG321       HGA2
   30    60	 1 ;       CG321       HGA2
   31    33	 1 ;       NG311     HGPAM1
   31    32	 1 ;       NG311      CG321
   32    34	 1 ;       CG321      NG311
   32    57	 1 ;       CG321       HGA2
   32    61	 1 ;       CG321       HGA2
   34    35	 1 ;       NG311     CG2D1O
   34    36	 1 ;       NG311     HGPAM1
   35    58	 1 ;      CG2D1O       HGA4
   37    38	 1 ;       NG321     HGPAM2
   37    39	 1 ;       NG321     HGPAM2

[ pairs ]
;	ai	  aj funct			  c0			c1			  c2			c3
    1    37	 1
    1    59	 1
    1    10	 1
    1     8	 1
    1     7	 1
    1    41	 1
    1    14	 1
    1    48	 1
    1    16	 1
    1    51	 1
    1    25	 1
    1    52	 1
    1    27	 1
    1    55	 1
    2     6	 1
    2    40	 1
    2    13	 1
    2    17	 1
    2    24	 1
    2    28	 1
    2    38	 1
    2    39	 1
    2    10	 1
    3    12	 1
    3    23	 1
    3     9	 1
    3    46	 1
    3    47	 1
    3     6	 1
    3    40	 1
    4    12	 1
    4    23	 1
    4    11	 1
    4    38	 1
    4    39	 1
    4     8	 1
    4     7	 1
    4    41	 1
    4    44	 1
    4    45	 1
    5    11	 1
    5    13	 1
    5    17	 1
    5    24	 1
    5    28	 1
    5    37	 1
    5    59	 1
    5     9	 1
    5    46	 1
    5    47	 1
    5    42	 1
    5    43	 1
    6    12	 1
    6    23	 1
    6    10	 1
    6    44	 1
    6    45	 1
    7    40	 1
    7     9	 1
    7    42	 1
    7    43	 1
    8    40	 1
    8    46	 1
    8    47	 1
    9    41	 1
   10    37	 1
   10    59	 1
   10    40	 1
   10    42	 1
   10    43	 1
   11    12	 1
   11    23	 1
   11    37	 1
   11    59	 1
   12    40	 1
   12    24	 1
   12    28	 1
   12    15	 1
   12    49	 1
   12    50	 1
   13    23	 1
   13    16	 1
   13    51	 1
   13    18	 1
   14    17	 1
   14    50	 1
   14    19	 1
   15    48	 1
   15    51	 1
   15    22	 1
   15    20	 1
   15    21	 1
   16    49	 1
   16    19	 1
   17    23	 1
   17    48	 1
   17    18	 1
   18    49	 1
   18    50	 1
   23    40	 1
   23    29	 1
   23    26	 1
   23    54	 1
   24    27	 1
   24    55	 1
   24    30	 1
   24    35	 1
   24    53	 1
   25    28	 1
   25    54	 1
   25    31	 1
   25    56	 1
   25    60	 1
   25    34	 1
   25    58	 1
   26    52	 1
   26    30	 1
   26    35	 1
   26    55	 1
   27    29	 1
   28    52	 1
   28    53	 1
   29    52	 1
   29    53	 1
   29    33	 1
   29    32	 1
   29    36	 1
   30    34	 1
   30    58	 1
   30    57	 1
   30    61	 1
   31    35	 1
   31    36	 1
   32    56	 1
   32    60	 1
   32    58	 1
   33    56	 1
   33    60	 1
   33    34	 1
   33    57	 1
   33    61	 1
   35    56	 1
   35    60	 1
   35    57	 1
   35    61	 1
   36    57	 1
   36    61	 1
   36    58	 1
   38    59	 1
   39    59	 1
   40    41	 1
   41    42	 1
   41    43	 1
   42    44	 1
   42    45	 1
   43    44	 1
   43    45	 1
   44    46	 1
   44    47	 1
   45    46	 1
   45    47	 1
   48    49	 1
   50    51	 1
   53    54	 1
   54    55	 1

[ angles ]
;	ai	  aj	ak funct			c0			  c1			c2			  c3
    5     1     2	5 ;     CG3RC1     CG3C50     NG3C51
    5     1    12	5 ;     CG3RC1     CG3C50     CG2R61
    5     1    23	5 ;     CG3RC1     CG3C50     CG2R61
    2     1    12	5 ;     NG3C51     CG3C50     CG2R61
    2     1    23	5 ;     NG3C51     CG3C50     CG2R61
   12     1    23	5 ;     CG2R61     CG3C50     CG2R61
    3     2     1	5 ;     CG3C51     NG3C51     CG3C50
    3     2    11	5 ;     CG3C51     NG3C51       HGP1
    1     2    11	5 ;     CG3C50     NG3C51       HGP1
   37     3     4	5 ;      NG321     CG3C51     NG3C51
   37     3     2	5 ;      NG321     CG3C51     NG3C51
   37     3    59	5 ;      NG321     CG3C51       HGA1
    4     3     2	5 ;     NG3C51     CG3C51     NG3C51
    4     3    59	5 ;     NG3C51     CG3C51       HGA1
    2     3    59	5 ;     NG3C51     CG3C51       HGA1
   10     4     3	5 ;      CG321     NG3C51     CG3C51
   10     4     5	5 ;      CG321     NG3C51     CG3RC1
    3     4     5	5 ;     CG3C51     NG3C51     CG3RC1
    4     5     6	5 ;     NG3C51     CG3RC1      NG3P2
    4     5     1	5 ;     NG3C51     CG3RC1     CG3C50
    4     5    40	5 ;     NG3C51     CG3RC1       HGA1
    6     5     1	5 ;      NG3P2     CG3RC1     CG3C50
    6     5    40	5 ;      NG3P2     CG3RC1       HGA1
    1     5    40	5 ;     CG3C50     CG3RC1       HGA1
    8     6     5	5 ;      CG324      NG3P2     CG3RC1
    8     6     7	5 ;      CG324      NG3P2       HGP2
    8     6    41	5 ;      CG324      NG3P2       HGP2
    5     6     7	5 ;     CG3RC1      NG3P2       HGP2
    5     6    41	5 ;     CG3RC1      NG3P2       HGP2
    7     6    41	5 ;       HGP2      NG3P2       HGP2
    9     8     6	5 ;      CG321      CG324      NG3P2
    9     8    42	5 ;      CG321      CG324       HGA2
    9     8    43	5 ;      CG321      CG324       HGA2
    6     8    42	5 ;      NG3P2      CG324       HGA2
    6     8    43	5 ;      NG3P2      CG324       HGA2
   42     8    43	5 ;       HGA2      CG324       HGA2
   10     9     8	5 ;      CG321      CG321      CG324
   10     9    44	5 ;      CG321      CG321       HGA2
   10     9    45	5 ;      CG321      CG321       HGA2
    8     9    44	5 ;      CG324      CG321       HGA2
    8     9    45	5 ;      CG324      CG321       HGA2
   44     9    45	5 ;       HGA2      CG321       HGA2
    9    10     4	5 ;      CG321      CG321     NG3C51
    9    10    46	5 ;      CG321      CG321       HGA2
    9    10    47	5 ;      CG321      CG321       HGA2
    4    10    46	5 ;     NG3C51      CG321       HGA2
    4    10    47	5 ;     NG3C51      CG321       HGA2
   46    10    47	5 ;       HGA2      CG321       HGA2
    1    12    13	5 ;     CG3C50     CG2R61     CG2R61
    1    12    17	5 ;     CG3C50     CG2R61     CG2R61
   13    12    17	5 ;     CG2R61     CG2R61     CG2R61
   12    13    14	5 ;     CG2R61     CG2R61     CG2R61
   12    13    48	5 ;     CG2R61     CG2R61      HGR61
   14    13    48	5 ;     CG2R61     CG2R61      HGR61
   13    14    15	5 ;     CG2R61     CG2R61     CG2R61
   13    14    49	5 ;     CG2R61     CG2R61      HGR61
   15    14    49	5 ;     CG2R61     CG2R61      HGR61
   14    15    16	5 ;     CG2R61     CG2R61     CG2R61
   14    15    18	5 ;     CG2R61     CG2R61      OG301
   16    15    18	5 ;     CG2R61     CG2R61      OG301
   17    16    15	5 ;     CG2R61     CG2R61     CG2R61
   17    16    50	5 ;     CG2R61     CG2R61      HGR61
   15    16    50	5 ;     CG2R61     CG2R61      HGR61
   12    17    16	5 ;     CG2R61     CG2R61     CG2R61
   12    17    51	5 ;     CG2R61     CG2R61      HGR61
   16    17    51	5 ;     CG2R61     CG2R61      HGR61
   19    18    15	5 ;      CG302      OG301     CG2R61
   22    19    20	5 ;       FGA3      CG302       FGA3
   22    19    21	5 ;       FGA3      CG302       FGA3
   22    19    18	5 ;       FGA3      CG302      OG301
   20    19    21	5 ;       FGA3      CG302       FGA3
   20    19    18	5 ;       FGA3      CG302      OG301
   21    19    18	5 ;       FGA3      CG302      OG301
    1    23    24	5 ;     CG3C50     CG2R61     CG2R61
    1    23    28	5 ;     CG3C50     CG2R61     CG2R61
   24    23    28	5 ;     CG2R61     CG2R61     CG2R61
   23    24    25	5 ;     CG2R61     CG2R61     CG2R61
   23    24    52	5 ;     CG2R61     CG2R61      HGR61
   25    24    52	5 ;     CG2R61     CG2R61      HGR61
   24    25    29	5 ;     CG2R61     CG2R61     CG2DC1
   24    25    26	5 ;     CG2R61     CG2R61     CG2R61
   29    25    26	5 ;     CG2DC1     CG2R61     CG2R61
   25    26    27	5 ;     CG2R61     CG2R61     CG2R61
   25    26    53	5 ;     CG2R61     CG2R61      HGR61
   27    26    53	5 ;     CG2R61     CG2R61      HGR61
   28    27    26	5 ;     CG2R61     CG2R61     CG2R61
   28    27    54	5 ;     CG2R61     CG2R61      HGR61
   26    27    54	5 ;     CG2R61     CG2R61      HGR61
   23    28    27	5 ;     CG2R61     CG2R61     CG2R61
   23    28    55	5 ;     CG2R61     CG2R61      HGR61
   27    28    55	5 ;     CG2R61     CG2R61      HGR61
   30    29    25	5 ;      CG321     CG2DC1     CG2R61
   30    29    35	5 ;      CG321     CG2DC1     CG2D1O
   25    29    35	5 ;     CG2R61     CG2DC1     CG2D1O
   31    30    29	5 ;      NG311      CG321     CG2DC1
   31    30    56	5 ;      NG311      CG321       HGA2
   31    30    60	5 ;      NG311      CG321       HGA2
   29    30    56	5 ;     CG2DC1      CG321       HGA2
   29    30    60	5 ;     CG2DC1      CG321       HGA2
   56    30    60	5 ;       HGA2      CG321       HGA2
   33    31    30	5 ;     HGPAM1      NG311      CG321
   33    31    32	5 ;     HGPAM1      NG311      CG321
   30    31    32	5 ;      CG321      NG311      CG321
   31    32    34	5 ;      NG311      CG321      NG311
   31    32    57	5 ;      NG311      CG321       HGA2
   31    32    61	5 ;      NG311      CG321       HGA2
   34    32    57	5 ;      NG311      CG321       HGA2
   34    32    61	5 ;      NG311      CG321       HGA2
   57    32    61	5 ;       HGA2      CG321       HGA2
   32    34    35	5 ;      CG321      NG311     CG2D1O
   32    34    36	5 ;      CG321      NG311     HGPAM1
   35    34    36	5 ;     CG2D1O      NG311     HGPAM1
   29    35    34	5 ;     CG2DC1     CG2D1O      NG311
   29    35    58	5 ;     CG2DC1     CG2D1O       HGA4
   34    35    58	5 ;      NG311     CG2D1O       HGA4
   38    37    39	5 ;     HGPAM2      NG321     HGPAM2
   38    37     3	5 ;     HGPAM2      NG321     CG3C51
   39    37     3	5 ;     HGPAM2      NG321     CG3C51

[ dihedrals ]
;	ai	  aj	ak	  al funct			  c0			c1			  c2			c3			  c4			c5
    2     1     5     4	 9 ;     NG3C51     CG3C50     CG3RC1     NG3C51
    2     1     5     6	 9 ;     NG3C51     CG3C50     CG3RC1      NG3P2
    2     1     5    40	 9 ;     NG3C51     CG3C50     CG3RC1       HGA1
   12     1     5     4	 9 ;     CG2R61     CG3C50     CG3RC1     NG3C51
   12     1     5     6	 9 ;     CG2R61     CG3C50     CG3RC1      NG3P2
   12     1     5    40	 9 ;     CG2R61     CG3C50     CG3RC1       HGA1
   23     1     5     4	 9 ;     CG2R61     CG3C50     CG3RC1     NG3C51
   23     1     5     6	 9 ;     CG2R61     CG3C50     CG3RC1      NG3P2
   23     1     5    40	 9 ;     CG2R61     CG3C50     CG3RC1       HGA1
    5     1     2     3	 9 ;     CG3RC1     CG3C50     NG3C51     CG3C51
    5     1     2    11	 9 ;     CG3RC1     CG3C50     NG3C51       HGP1
   12     1     2     3	 9 ;     CG2R61     CG3C50     NG3C51     CG3C51
   12     1     2    11	 9 ;     CG2R61     CG3C50     NG3C51       HGP1
   23     1     2     3	 9 ;     CG2R61     CG3C50     NG3C51     CG3C51
   23     1     2    11	 9 ;     CG2R61     CG3C50     NG3C51       HGP1
    5     1    12    13	 9 ;     CG3RC1     CG3C50     CG2R61     CG2R61
    5     1    12    17	 9 ;     CG3RC1     CG3C50     CG2R61     CG2R61
    2     1    12    13	 9 ;     NG3C51     CG3C50     CG2R61     CG2R61
    2     1    12    17	 9 ;     NG3C51     CG3C50     CG2R61     CG2R61
   23     1    12    13	 9 ;     CG2R61     CG3C50     CG2R61     CG2R61
   23     1    12    17	 9 ;     CG2R61     CG3C50     CG2R61     CG2R61
    5     1    23    24	 9 ;     CG3RC1     CG3C50     CG2R61     CG2R61
    5     1    23    28	 9 ;     CG3RC1     CG3C50     CG2R61     CG2R61
    2     1    23    24	 9 ;     NG3C51     CG3C50     CG2R61     CG2R61
    2     1    23    28	 9 ;     NG3C51     CG3C50     CG2R61     CG2R61
   12     1    23    24	 9 ;     CG2R61     CG3C50     CG2R61     CG2R61
   12     1    23    28	 9 ;     CG2R61     CG3C50     CG2R61     CG2R61
    1     2     3    37	 9 ;     CG3C50     NG3C51     CG3C51      NG321
    1     2     3     4	 9 ;     CG3C50     NG3C51     CG3C51     NG3C51
    1     2     3    59	 9 ;     CG3C50     NG3C51     CG3C51       HGA1
   11     2     3    37	 9 ;       HGP1     NG3C51     CG3C51      NG321
   11     2     3     4	 9 ;       HGP1     NG3C51     CG3C51     NG3C51
   11     2     3    59	 9 ;       HGP1     NG3C51     CG3C51       HGA1
    4     3    37    38	 9 ;     NG3C51     CG3C51      NG321     HGPAM2
    4     3    37    39	 9 ;     NG3C51     CG3C51      NG321     HGPAM2
    2     3    37    38	 9 ;     NG3C51     CG3C51      NG321     HGPAM2
    2     3    37    39	 9 ;     NG3C51     CG3C51      NG321     HGPAM2
   59     3    37    38	 9 ;       HGA1     CG3C51      NG321     HGPAM2
   59     3    37    39	 9 ;       HGA1     CG3C51      NG321     HGPAM2
   37     3     4    10	 9 ;      NG321     CG3C51     NG3C51      CG321
   37     3     4     5	 9 ;      NG321     CG3C51     NG3C51     CG3RC1
    2     3     4    10	 9 ;     NG3C51     CG3C51     NG3C51      CG321
    2     3     4     5	 9 ;     NG3C51     CG3C51     NG3C51     CG3RC1
   59     3     4    10	 9 ;       HGA1     CG3C51     NG3C51      CG321
   59     3     4     5	 9 ;       HGA1     CG3C51     NG3C51     CG3RC1
    3     4    10     9	 9 ;     CG3C51     NG3C51      CG321      CG321
    3     4    10    46	 9 ;     CG3C51     NG3C51      CG321       HGA2
    3     4    10    47	 9 ;     CG3C51     NG3C51      CG321       HGA2
    5     4    10     9	 9 ;     CG3RC1     NG3C51      CG321      CG321
    5     4    10    46	 9 ;     CG3RC1     NG3C51      CG321       HGA2
    5     4    10    47	 9 ;     CG3RC1     NG3C51      CG321       HGA2
   10     4     5     6	 9 ;      CG321     NG3C51     CG3RC1      NG3P2
   10     4     5     1	 9 ;      CG321     NG3C51     CG3RC1     CG3C50
   10     4     5    40	 9 ;      CG321     NG3C51     CG3RC1       HGA1
    3     4     5     6	 9 ;     CG3C51     NG3C51     CG3RC1      NG3P2
    3     4     5     1	 9 ;     CG3C51     NG3C51     CG3RC1     CG3C50
    3     4     5    40	 9 ;     CG3C51     NG3C51     CG3RC1       HGA1
    4     5     6     8	 9 ;     NG3C51     CG3RC1      NG3P2      CG324
    4     5     6     7	 9 ;     NG3C51     CG3RC1      NG3P2       HGP2
    4     5     6    41	 9 ;     NG3C51     CG3RC1      NG3P2       HGP2
    1     5     6     8	 9 ;     CG3C50     CG3RC1      NG3P2      CG324
    1     5     6     7	 9 ;     CG3C50     CG3RC1      NG3P2       HGP2
    1     5     6    41	 9 ;     CG3C50     CG3RC1      NG3P2       HGP2
   40     5     6     8	 9 ;       HGA1     CG3RC1      NG3P2      CG324
   40     5     6     7	 9 ;       HGA1     CG3RC1      NG3P2       HGP2
   40     5     6    41	 9 ;       HGA1     CG3RC1      NG3P2       HGP2
    5     6     8     9	 9 ;     CG3RC1      NG3P2      CG324      CG321
    5     6     8    42	 9 ;     CG3RC1      NG3P2      CG324       HGA2
    5     6     8    43	 9 ;     CG3RC1      NG3P2      CG324       HGA2
    7     6     8     9	 9 ;       HGP2      NG3P2      CG324      CG321
    7     6     8    42	 9 ;       HGP2      NG3P2      CG324       HGA2
    7     6     8    43	 9 ;       HGP2      NG3P2      CG324       HGA2
   41     6     8     9	 9 ;       HGP2      NG3P2      CG324      CG321
   41     6     8    42	 9 ;       HGP2      NG3P2      CG324       HGA2
   41     6     8    43	 9 ;       HGP2      NG3P2      CG324       HGA2
    6     8     9    10	 9 ;      NG3P2      CG324      CG321      CG321
    6     8     9    44	 9 ;      NG3P2      CG324      CG321       HGA2
    6     8     9    45	 9 ;      NG3P2      CG324      CG321       HGA2
   42     8     9    10	 9 ;       HGA2      CG324      CG321      CG321
   42     8     9    44	 9 ;       HGA2      CG324      CG321       HGA2
   42     8     9    45	 9 ;       HGA2      CG324      CG321       HGA2
   43     8     9    10	 9 ;       HGA2      CG324      CG321      CG321
   43     8     9    44	 9 ;       HGA2      CG324      CG321       HGA2
   43     8     9    45	 9 ;       HGA2      CG324      CG321       HGA2
    8     9    10     4	 9 ;      CG324      CG321      CG321     NG3C51
    8     9    10    46	 9 ;      CG324      CG321      CG321       HGA2
    8     9    10    47	 9 ;      CG324      CG321      CG321       HGA2
   44     9    10     4	 9 ;       HGA2      CG321      CG321     NG3C51
   44     9    10    46	 9 ;       HGA2      CG321      CG321       HGA2
   44     9    10    47	 9 ;       HGA2      CG321      CG321       HGA2
   45     9    10     4	 9 ;       HGA2      CG321      CG321     NG3C51
   45     9    10    46	 9 ;       HGA2      CG321      CG321       HGA2
   45     9    10    47	 9 ;       HGA2      CG321      CG321       HGA2
    1    12    13    14	 9 ;     CG3C50     CG2R61     CG2R61     CG2R61
    1    12    13    48	 9 ;     CG3C50     CG2R61     CG2R61      HGR61
   17    12    13    14	 9 ;     CG2R61     CG2R61     CG2R61     CG2R61
   17    12    13    48	 9 ;     CG2R61     CG2R61     CG2R61      HGR61
    1    12    17    16	 9 ;     CG3C50     CG2R61     CG2R61     CG2R61
    1    12    17    51	 9 ;     CG3C50     CG2R61     CG2R61      HGR61
   13    12    17    16	 9 ;     CG2R61     CG2R61     CG2R61     CG2R61
   13    12    17    51	 9 ;     CG2R61     CG2R61     CG2R61      HGR61
   12    13    14    15	 9 ;     CG2R61     CG2R61     CG2R61     CG2R61
   12    13    14    49	 9 ;     CG2R61     CG2R61     CG2R61      HGR61
   48    13    14    15	 9 ;      HGR61     CG2R61     CG2R61     CG2R61
   48    13    14    49	 9 ;      HGR61     CG2R61     CG2R61      HGR61
   13    14    15    16	 9 ;     CG2R61     CG2R61     CG2R61     CG2R61
   13    14    15    18	 9 ;     CG2R61     CG2R61     CG2R61      OG301
   49    14    15    16	 9 ;      HGR61     CG2R61     CG2R61     CG2R61
   49    14    15    18	 9 ;      HGR61     CG2R61     CG2R61      OG301
   14    15    16    17	 9 ;     CG2R61     CG2R61     CG2R61     CG2R61
   14    15    16    50	 9 ;     CG2R61     CG2R61     CG2R61      HGR61
   18    15    16    17	 9 ;      OG301     CG2R61     CG2R61     CG2R61
   18    15    16    50	 9 ;      OG301     CG2R61     CG2R61      HGR61
   14    15    18    19	 9 ;     CG2R61     CG2R61      OG301      CG302
   16    15    18    19	 9 ;     CG2R61     CG2R61      OG301      CG302
   15    16    17    12	 9 ;     CG2R61     CG2R61     CG2R61     CG2R61
   15    16    17    51	 9 ;     CG2R61     CG2R61     CG2R61      HGR61
   50    16    17    12	 9 ;      HGR61     CG2R61     CG2R61     CG2R61
   50    16    17    51	 9 ;      HGR61     CG2R61     CG2R61      HGR61
   15    18    19    22	 9 ;     CG2R61      OG301      CG302       FGA3
   15    18    19    20	 9 ;     CG2R61      OG301      CG302       FGA3
   15    18    19    21	 9 ;     CG2R61      OG301      CG302       FGA3
    1    23    24    25	 9 ;     CG3C50     CG2R61     CG2R61     CG2R61
    1    23    24    52	 9 ;     CG3C50     CG2R61     CG2R61      HGR61
   28    23    24    25	 9 ;     CG2R61     CG2R61     CG2R61     CG2R61
   28    23    24    52	 9 ;     CG2R61     CG2R61     CG2R61      HGR61
    1    23    28    27	 9 ;     CG3C50     CG2R61     CG2R61     CG2R61
    1    23    28    55	 9 ;     CG3C50     CG2R61     CG2R61      HGR61
   24    23    28    27	 9 ;     CG2R61     CG2R61     CG2R61     CG2R61
   24    23    28    55	 9 ;     CG2R61     CG2R61     CG2R61      HGR61
   23    24    25    29	 9 ;     CG2R61     CG2R61     CG2R61     CG2DC1
   23    24    25    26	 9 ;     CG2R61     CG2R61     CG2R61     CG2R61
   52    24    25    29	 9 ;      HGR61     CG2R61     CG2R61     CG2DC1
   52    24    25    26	 9 ;      HGR61     CG2R61     CG2R61     CG2R61
   24    25    29    30	 9 ;     CG2R61     CG2R61     CG2DC1      CG321
   24    25    29    35	 9 ;     CG2R61     CG2R61     CG2DC1     CG2D1O
   26    25    29    30	 9 ;     CG2R61     CG2R61     CG2DC1      CG321
   26    25    29    35	 9 ;     CG2R61     CG2R61     CG2DC1     CG2D1O
   24    25    26    27	 9 ;     CG2R61     CG2R61     CG2R61     CG2R61
   24    25    26    53	 9 ;     CG2R61     CG2R61     CG2R61      HGR61
   29    25    26    27	 9 ;     CG2DC1     CG2R61     CG2R61     CG2R61
   29    25    26    53	 9 ;     CG2DC1     CG2R61     CG2R61      HGR61
   25    26    27    28	 9 ;     CG2R61     CG2R61     CG2R61     CG2R61
   25    26    27    54	 9 ;     CG2R61     CG2R61     CG2R61      HGR61
   53    26    27    28	 9 ;      HGR61     CG2R61     CG2R61     CG2R61
   53    26    27    54	 9 ;      HGR61     CG2R61     CG2R61      HGR61
   26    27    28    23	 9 ;     CG2R61     CG2R61     CG2R61     CG2R61
   26    27    28    55	 9 ;     CG2R61     CG2R61     CG2R61      HGR61
   54    27    28    23	 9 ;      HGR61     CG2R61     CG2R61     CG2R61
   54    27    28    55	 9 ;      HGR61     CG2R61     CG2R61      HGR61
   25    29    30    31	 9 ;     CG2R61     CG2DC1      CG321      NG311
   25    29    30    56	 9 ;     CG2R61     CG2DC1      CG321       HGA2
   25    29    30    60	 9 ;     CG2R61     CG2DC1      CG321       HGA2
   35    29    30    31	 9 ;     CG2D1O     CG2DC1      CG321      NG311
   35    29    30    56	 9 ;     CG2D1O     CG2DC1      CG321       HGA2
   35    29    30    60	 9 ;     CG2D1O     CG2DC1      CG321       HGA2
   30    29    35    34	 9 ;      CG321     CG2DC1     CG2D1O      NG311
   30    29    35    58	 9 ;      CG321     CG2DC1     CG2D1O       HGA4
   25    29    35    34	 9 ;     CG2R61     CG2DC1     CG2D1O      NG311
   25    29    35    58	 9 ;     CG2R61     CG2DC1     CG2D1O       HGA4
   29    30    31    33	 9 ;     CG2DC1      CG321      NG311     HGPAM1
   29    30    31    32	 9 ;     CG2DC1      CG321      NG311      CG321
   56    30    31    33	 9 ;       HGA2      CG321      NG311     HGPAM1
   56    30    31    32	 9 ;       HGA2      CG321      NG311      CG321
   60    30    31    33	 9 ;       HGA2      CG321      NG311     HGPAM1
   60    30    31    32	 9 ;       HGA2      CG321      NG311      CG321
   33    31    32    34	 9 ;     HGPAM1      NG311      CG321      NG311
   33    31    32    57	 9 ;     HGPAM1      NG311      CG321       HGA2
   33    31    32    61	 9 ;     HGPAM1      NG311      CG321       HGA2
   30    31    32    34	 9 ;      CG321      NG311      CG321      NG311
   30    31    32    57	 9 ;      CG321      NG311      CG321       HGA2
   30    31    32    61	 9 ;      CG321      NG311      CG321       HGA2
   31    32    34    35	 9 ;      NG311      CG321      NG311     CG2D1O
   31    32    34    36	 9 ;      NG311      CG321      NG311     HGPAM1
   57    32    34    35	 9 ;       HGA2      CG321      NG311     CG2D1O
   57    32    34    36	 9 ;       HGA2      CG321      NG311     HGPAM1
   61    32    34    35	 9 ;       HGA2      CG321      NG311     CG2D1O
   61    32    34    36	 9 ;       HGA2      CG321      NG311     HGPAM1
   32    34    35    29	 9 ;      CG321      NG311     CG2D1O     CG2DC1
   32    34    35    58	 9 ;      CG321      NG311     CG2D1O       HGA4
   36    34    35    29	 9 ;     HGPAM1      NG311     CG2D1O     CG2DC1
   36    34    35    58	 9 ;     HGPAM1      NG311     CG2D1O       HGA4

[ dihedrals ]
;	ai	  aj	ak	  al funct			  c0			c1			  c2			c3
   35    29    34    58	 2

