S  C  A  M  O  R  G
   94
    1LIG     C1    1  -1.655   0.417  -1.539
    1LIG     O1    2  -1.770   0.409  -1.577
    1LIG     N1    3  -1.614   0.487  -1.427
    1LIG     H1    4  -1.515   0.486  -1.406
    1LIG     C2    5  -1.700   0.567  -1.337
    1LIG     C3    6  -1.713   0.521  -1.190
    1LIG     C4    7  -1.853   0.521  -1.131
    1LIG     C5    8  -1.930   0.404  -1.135
    1LIG     C6    9  -2.057   0.400  -1.077
    1LIG     F1   10  -2.129   0.287  -1.083
    1LIG     C7   11  -2.111   0.511  -1.015
    1LIG     C8   12  -2.036   0.628  -1.011
    1LIG     F2   13  -2.086   0.737  -0.952
    1LIG     C9   14  -1.909   0.634  -1.068
    1LIG    C10   15  -1.668   0.718  -1.356
    1LIG    C11   16  -1.599   0.752  -1.490
    1LIG     N2   17  -1.461   0.807  -1.462
    1LIG     H2   18  -1.465   0.909  -1.448
    1LIG     H3   19  -1.430   0.768  -1.371
    1LIG    C12   20  -1.358   0.776  -1.565
    1LIG    C13   21  -1.382   0.849  -1.693
    1LIG    C14   22  -1.412   0.986  -1.691
    1LIG    C15   23  -1.436   1.055  -1.809
    1LIG    C16   24  -1.430   0.987  -1.931
    1LIG    C17   25  -1.399   0.851  -1.935
    1LIG    C18   26  -1.374   0.782  -1.816
    1LIG     O2   27  -1.465   1.188  -1.818
    1LIG    C19   28  -1.594   1.223  -1.870
    1LIG     O3   29  -1.779   0.807  -1.344
    1LIG     H4   30  -1.796   0.824  -1.250
    1LIG    C20   31  -1.551   0.340  -1.612
    1LIG    C21   32  -1.514   0.217  -1.556
    1LIG    C22   33  -1.414   0.139  -1.614
    1LIG    C23   34  -1.344   0.187  -1.725
    1LIG    C24   35  -1.386   0.307  -1.785
    1LIG    C25   36  -1.489   0.384  -1.730
    1LIG    C26   37  -1.372   0.012  -1.551
    1LIG     O4   38  -1.426  -0.089  -1.594
    1LIG     N3   39  -1.275   0.010  -1.449
    1LIG    C27   40  -1.239  -0.122  -1.395
    1LIG    C28   41  -1.117  -0.187  -1.461
    1LIG    C29   42  -1.155  -0.294  -1.562
    1LIG    C30   43  -1.235   0.129  -1.371
    1LIG    C31   44  -1.112   0.205  -1.423
    1LIG    C32   45  -1.139   0.350  -1.460
    1LIG      S   46  -1.308   0.359  -1.936
    1LIG     O5   47  -1.394   0.464  -1.990
    1LIG     O6   48  -1.281   0.240  -2.013
    1LIG    C33   49  -1.151   0.431  -1.892
    1LIG    C34   50  -1.138   0.510  -1.778
    1LIG    C35   51  -1.013   0.560  -1.743
    1LIG    C36   52  -0.901   0.532  -1.823
    1LIG    C37   53  -0.915   0.455  -1.938
    1LIG    C38   54  -1.040   0.404  -1.974
    1LIG     HC   55  -1.800   0.555  -1.378
    1LIG    HC2   56  -1.651   0.587  -1.129
    1LIG    HC3   57  -1.673   0.420  -1.182
    1LIG    HC1   58  -1.890   0.315  -1.182
    1LIG    HC4   59  -2.209   0.507  -0.970
    1LIG    HC5   60  -1.852   0.726  -1.063
    1LIG    HC6   61  -1.597   0.745  -1.277
    1LIG    HC7   62  -1.658   0.827  -1.543
    1LIG    HC8   63  -1.591   0.662  -1.551
    1LIG    HC9   64  -1.260   0.804  -1.526
    1LIG   HC10   65  -1.359   0.669  -1.585
    1LIG   HC11   66  -1.418   1.038  -1.596
    1LIG   HC12   67  -1.449   1.040  -2.023
    1LIG   HC13   68  -1.395   0.799  -2.029
    1LIG   HC14   69  -1.349   0.677  -1.819
    1LIG   HC15   70  -1.564   0.182  -1.467
    1LIG   HC16   71  -1.260   0.133  -1.765
    1LIG   HC17   72  -1.521   0.475  -1.778
    1LIG   HC18   73  -1.324  -0.188  -1.407
    1LIG   HC19   74  -1.218  -0.111  -1.288
    1LIG   HC20   75  -1.060  -0.110  -1.512
    1LIG   HC21   76  -1.055  -0.232  -1.384
    1LIG   HC22   77  -1.319   0.198  -1.370
    1LIG   HC23   78  -1.215   0.097  -1.268
    1LIG   HC24   79  -1.075   0.153  -1.511
    1LIG   HC25   80  -1.035   0.202  -1.346
    1LIG   HC26   81  -1.224   0.531  -1.716
    1LIG   HC27   82  -1.002   0.620  -1.655
    1LIG   HC28   83  -0.804   0.571  -1.795
    1LIG   HC29   84  -0.829   0.434  -2.000
    1LIG   HC30   85  -1.051   0.344  -2.063
    1LIG   HC31   86  -1.047   0.396  -1.495
    1LIG   HC32   87  -1.214   0.354  -1.538
    1LIG   HC33   88  -1.175   0.404  -1.372
    1LIG   HC34   89  -1.065  -0.337  -1.605
    1LIG   HC35   90  -1.212  -0.373  -1.512
    1LIG   HC36   91  -1.216  -0.250  -1.641
    1LIG   HC37   92  -1.604   1.332  -1.872
    1LIG   HC38   93  -1.671   1.180  -1.806
    1LIG   HC39   94  -1.604   1.184  -1.971
   0.00000   0.00000   0.00000
