; Created by cgenff_charmm2gmx.py

[ moleculetype ]
; Name			   nrexcl
LIG				 3

[ atoms ]
;	 nr		  type	resnr residue  atom   cgnr	   charge		mass  typeB    chargeB		massB
; residue	 1 LIG rtp LIG q	qsum
     1      CG2O1      1    LIG     C1      1      0.302     12.011   ;
     2      OG2D1      1    LIG     O1      2     -0.463     15.999   ;
     3      NG2S1      1    LIG     N1      3     -0.226     14.007   ;
     4       HGP1      1    LIG     H1      4      0.262      1.008   ;
     5      CG311      1    LIG     C2      5      0.010     12.011   ;
     6      CG321      1    LIG     C3      6     -0.153     12.011   ;
     7     CG2R61      1    LIG     C4      7      0.057     12.011   ;
     8     CG2R61      1    LIG     C5      8     -0.218     12.011   ;
     9     CG2R66      1    LIG     C6      9      0.261     12.011   ;
    10       FGR1      1    LIG     F1     10     -0.210     18.998   ;
    11     CG2R61      1    LIG     C7     11     -0.240     12.011   ;
    12     CG2R66      1    LIG     C8     12      0.261     12.011   ;
    13       FGR1      1    LIG     F2     13     -0.210     18.998   ;
    14     CG2R61      1    LIG     C9     14     -0.218     12.011   ;
    15      CG311      1    LIG    C10     15      0.094     12.011   ;
    16      CG324      1    LIG    C11     16      0.178     12.011   ;
    17      NG3P2      1    LIG     N2     17     -0.444     14.007   ;
    18       HGP2      1    LIG     H2     18      0.348      1.008   ;
    19       HGP2      1    LIG     H3     19      0.348      1.008   ;
    20      CG324      1    LIG    C12     20      0.171     12.011   ;
    21     CG2R61      1    LIG    C13     21      0.036     12.011   ;
    22     CG2R61      1    LIG    C14     22     -0.124     12.011   ;
    23     CG2R61      1    LIG    C15     23      0.216     12.011   ;
    24     CG2R61      1    LIG    C16     24     -0.121     12.011   ;
    25     CG2R61      1    LIG    C17     25     -0.108     12.011   ;
    26     CG2R61      1    LIG    C18     26     -0.119     12.011   ;
    27      OG301      1    LIG     O2     27     -0.383     15.999   ;
    28      CG331      1    LIG    C19     28     -0.094     12.011   ;
    29      OG311      1    LIG     O3     29     -0.625     15.999   ;
    30       HGP1      1    LIG     H4     30      0.415      1.008   ;
    31     CG2R61      1    LIG    C20     31     -0.102     12.011   ;
    32     CG2R61      1    LIG    C21     32     -0.003     12.011   ;
    33     CG2R61      1    LIG    C22     33     -0.161     12.011   ;
    34     CG2R61      1    LIG    C23     34     -0.045     12.011   ;
    35     CG2R61      1    LIG    C24     35      0.135     12.011   ;
    36     CG2R61      1    LIG    C25     36     -0.046     12.011   ;
    37      CG2O1      1    LIG    C26     37      0.400     12.011   ;
    38      OG2D1      1    LIG     O4     38     -0.476     15.999   ;
    39      NG2S0      1    LIG     N3     39     -0.418     14.007   ;
    40      CG321      1    LIG    C27     40      0.096     12.011   ;
    41      CG321      1    LIG    C28     41     -0.170     12.011   ;
    42      CG331      1    LIG    C29     42     -0.285     12.011   ;
    43      CG321      1    LIG    C30     43      0.096     12.011   ;
    44      CG321      1    LIG    C31     44     -0.170     12.011   ;
    45      CG331      1    LIG    C32     45     -0.285     12.011   ;
    46      SG3O2      1    LIG      S     46      0.394     32.060   ;
    47      OG2P1      1    LIG     O5     47     -0.362     15.999   ;
    48      OG2P1      1    LIG     O6     48     -0.362     15.999   ;
    49     CG2R61      1    LIG    C33     49      0.131     12.011   ;
    50     CG2R61      1    LIG    C34     50     -0.102     12.011   ;
    51     CG2R61      1    LIG    C35     51     -0.113     12.011   ;
    52     CG2R61      1    LIG    C36     52     -0.116     12.011   ;
    53     CG2R61      1    LIG    C37     53     -0.113     12.011   ;
    54     CG2R61      1    LIG    C38     54     -0.102     12.011   ;
    55       HGA1      1    LIG     HC     55      0.090      1.008   ;
    56       HGA2      1    LIG    HC2     56      0.090      1.008   ;
    57       HGA2      1    LIG    HC3     57      0.090      1.008   ;
    58      HGR62      1    LIG    HC1     58      0.174      1.008   ;
    59      HGR62      1    LIG    HC4     59      0.186      1.008   ;
    60      HGR62      1    LIG    HC5     60      0.174      1.008   ;
    61       HGA1      1    LIG    HC6     61      0.090      1.008   ;
    62       HGA2      1    LIG    HC7     62      0.090      1.008   ;
    63       HGA2      1    LIG    HC8     63      0.090      1.008   ;
    64       HGA2      1    LIG    HC9     64      0.090      1.008   ;
    65       HGA2      1    LIG   HC10     65      0.090      1.008   ;
    66      HGR61      1    LIG   HC11     66      0.116      1.008   ;
    67      HGR61      1    LIG   HC12     67      0.116      1.008   ;
    68      HGR61      1    LIG   HC13     68      0.116      1.008   ;
    69      HGR61      1    LIG   HC14     69      0.116      1.008   ;
    70      HGR61      1    LIG   HC15     70      0.116      1.008   ;
    71      HGR61      1    LIG   HC16     71      0.116      1.008   ;
    72      HGR61      1    LIG   HC17     72      0.116      1.008   ;
    73       HGA2      1    LIG   HC18     73      0.090      1.008   ;
    74       HGA2      1    LIG   HC19     74      0.090      1.008   ;
    75       HGA2      1    LIG   HC20     75      0.090      1.008   ;
    76       HGA2      1    LIG   HC21     76      0.090      1.008   ;
    77       HGA2      1    LIG   HC22     77      0.090      1.008   ;
    78       HGA2      1    LIG   HC23     78      0.090      1.008   ;
    79       HGA2      1    LIG   HC24     79      0.090      1.008   ;
    80       HGA2      1    LIG   HC25     80      0.090      1.008   ;
    81      HGR61      1    LIG   HC26     81      0.116      1.008   ;
    82      HGR61      1    LIG   HC27     82      0.116      1.008   ;
    83      HGR61      1    LIG   HC28     83      0.116      1.008   ;
    84      HGR61      1    LIG   HC29     84      0.116      1.008   ;
    85      HGR61      1    LIG   HC30     85      0.116      1.008   ;
    86       HGA3      1    LIG   HC31     86      0.090      1.008   ;
    87       HGA3      1    LIG   HC32     87      0.090      1.008   ;
    88       HGA3      1    LIG   HC33     88      0.090      1.008   ;
    89       HGA3      1    LIG   HC34     89      0.090      1.008   ;
    90       HGA3      1    LIG   HC35     90      0.090      1.008   ;
    91       HGA3      1    LIG   HC36     91      0.090      1.008   ;
    92       HGA3      1    LIG   HC37     92      0.090      1.008   ;
    93       HGA3      1    LIG   HC38     93      0.090      1.008   ;
    94       HGA3      1    LIG   HC39     94      0.090      1.008   ;

[ bonds ]
;	ai	  aj funct			  c0			c1			  c2			c3
    1    31	 1 ;       CG2O1     CG2R61
    1     2	 1 ;       CG2O1      OG2D1
    1     3	 1 ;       CG2O1      NG2S1
    3     4	 1 ;       NG2S1       HGP1
    3     5	 1 ;       NG2S1      CG311
    5    15	 1 ;       CG311      CG311
    5     6	 1 ;       CG311      CG321
    5    55	 1 ;       CG311       HGA1
    6     7	 1 ;       CG321     CG2R61
    6    56	 1 ;       CG321       HGA2
    6    57	 1 ;       CG321       HGA2
    7     8	 1 ;      CG2R61     CG2R61
    7    14	 1 ;      CG2R61     CG2R61
    8     9	 1 ;      CG2R61     CG2R66
    8    58	 1 ;      CG2R61      HGR62
    9    10	 1 ;      CG2R66       FGR1
    9    11	 1 ;      CG2R66     CG2R61
   11    12	 1 ;      CG2R61     CG2R66
   11    59	 1 ;      CG2R61      HGR62
   12    14	 1 ;      CG2R66     CG2R61
   12    13	 1 ;      CG2R66       FGR1
   14    60	 1 ;      CG2R61      HGR62
   15    16	 1 ;       CG311      CG324
   15    29	 1 ;       CG311      OG311
   15    61	 1 ;       CG311       HGA1
   16    17	 1 ;       CG324      NG3P2
   16    62	 1 ;       CG324       HGA2
   16    63	 1 ;       CG324       HGA2
   17    20	 1 ;       NG3P2      CG324
   17    18	 1 ;       NG3P2       HGP2
   17    19	 1 ;       NG3P2       HGP2
   20    21	 1 ;       CG324     CG2R61
   20    64	 1 ;       CG324       HGA2
   20    65	 1 ;       CG324       HGA2
   21    26	 1 ;      CG2R61     CG2R61
   21    22	 1 ;      CG2R61     CG2R61
   22    23	 1 ;      CG2R61     CG2R61
   22    66	 1 ;      CG2R61      HGR61
   23    24	 1 ;      CG2R61     CG2R61
   23    27	 1 ;      CG2R61      OG301
   24    25	 1 ;      CG2R61     CG2R61
   24    67	 1 ;      CG2R61      HGR61
   25    26	 1 ;      CG2R61     CG2R61
   25    68	 1 ;      CG2R61      HGR61
   26    69	 1 ;      CG2R61      HGR61
   27    28	 1 ;       OG301      CG331
   28    92	 1 ;       CG331       HGA3
   28    93	 1 ;       CG331       HGA3
   28    94	 1 ;       CG331       HGA3
   29    30	 1 ;       OG311       HGP1
   31    36	 1 ;      CG2R61     CG2R61
   31    32	 1 ;      CG2R61     CG2R61
   32    33	 1 ;      CG2R61     CG2R61
   32    70	 1 ;      CG2R61      HGR61
   33    34	 1 ;      CG2R61     CG2R61
   33    37	 1 ;      CG2R61      CG2O1
   34    35	 1 ;      CG2R61     CG2R61
   34    71	 1 ;      CG2R61      HGR61
   35    46	 1 ;      CG2R61      SG3O2
   35    36	 1 ;      CG2R61     CG2R61
   36    72	 1 ;      CG2R61      HGR61
   37    38	 1 ;       CG2O1      OG2D1
   37    39	 1 ;       CG2O1      NG2S0
   39    40	 1 ;       NG2S0      CG321
   39    43	 1 ;       NG2S0      CG321
   40    41	 1 ;       CG321      CG321
   40    73	 1 ;       CG321       HGA2
   40    74	 1 ;       CG321       HGA2
   41    42	 1 ;       CG321      CG331
   41    75	 1 ;       CG321       HGA2
   41    76	 1 ;       CG321       HGA2
   42    89	 1 ;       CG331       HGA3
   42    90	 1 ;       CG331       HGA3
   42    91	 1 ;       CG331       HGA3
   43    44	 1 ;       CG321      CG321
   43    77	 1 ;       CG321       HGA2
   43    78	 1 ;       CG321       HGA2
   44    45	 1 ;       CG321      CG331
   44    79	 1 ;       CG321       HGA2
   44    80	 1 ;       CG321       HGA2
   45    86	 1 ;       CG331       HGA3
   45    87	 1 ;       CG331       HGA3
   45    88	 1 ;       CG331       HGA3
   46    48	 1 ;       SG3O2      OG2P1
   46    49	 1 ;       SG3O2     CG2R61
   46    47	 1 ;       SG3O2      OG2P1
   49    54	 1 ;      CG2R61     CG2R61
   49    50	 1 ;      CG2R61     CG2R61
   50    51	 1 ;      CG2R61     CG2R61
   50    81	 1 ;      CG2R61      HGR61
   51    52	 1 ;      CG2R61     CG2R61
   51    82	 1 ;      CG2R61      HGR61
   52    53	 1 ;      CG2R61     CG2R61
   52    83	 1 ;      CG2R61      HGR61
   53    54	 1 ;      CG2R61     CG2R61
   53    84	 1 ;      CG2R61      HGR61
   54    85	 1 ;      CG2R61      HGR61

[ pairs ]
;	ai	  aj funct			  c0			c1			  c2			c3
    1    15	 1
    1     6	 1
    1    55	 1
    1    35	 1
    1    72	 1
    1    33	 1
    1    70	 1
    2    36	 1
    2    32	 1
    2     4	 1
    2     5	 1
    3    36	 1
    3    32	 1
    3    16	 1
    3    29	 1
    3    61	 1
    3     7	 1
    3    56	 1
    3    57	 1
    4    31	 1
    4    15	 1
    4     6	 1
    4    55	 1
    5    31	 1
    5     8	 1
    5    14	 1
    5    17	 1
    5    62	 1
    5    63	 1
    5    30	 1
    6    16	 1
    6    29	 1
    6    61	 1
    6     9	 1
    6    58	 1
    6    12	 1
    6    60	 1
    7    15	 1
    7    55	 1
    7    10	 1
    7    11	 1
    7    13	 1
    8    56	 1
    8    57	 1
    8    12	 1
    8    60	 1
    8    59	 1
    9    14	 1
    9    13	 1
   10    58	 1
   10    12	 1
   10    59	 1
   11    58	 1
   11    60	 1
   13    59	 1
   13    60	 1
   14    56	 1
   14    57	 1
   14    58	 1
   14    59	 1
   15    56	 1
   15    57	 1
   15    20	 1
   15    18	 1
   15    19	 1
   16    55	 1
   16    30	 1
   16    21	 1
   16    64	 1
   16    65	 1
   17    29	 1
   17    61	 1
   17    26	 1
   17    22	 1
   18    62	 1
   18    63	 1
   18    21	 1
   18    64	 1
   18    65	 1
   19    62	 1
   19    63	 1
   19    21	 1
   19    64	 1
   19    65	 1
   20    62	 1
   20    63	 1
   20    25	 1
   20    69	 1
   20    23	 1
   20    66	 1
   21    24	 1
   21    27	 1
   21    68	 1
   22    64	 1
   22    65	 1
   22    25	 1
   22    69	 1
   22    67	 1
   22    28	 1
   23    26	 1
   23    68	 1
   23    92	 1
   23    93	 1
   23    94	 1
   24    66	 1
   24    28	 1
   24    69	 1
   25    27	 1
   26    64	 1
   26    65	 1
   26    66	 1
   26    67	 1
   27    66	 1
   27    67	 1
   29    55	 1
   29    62	 1
   29    63	 1
   30    61	 1
   31    34	 1
   31    37	 1
   31    46	 1
   32    35	 1
   32    72	 1
   32    71	 1
   32    38	 1
   32    39	 1
   33    36	 1
   33    46	 1
   33    40	 1
   33    43	 1
   34    70	 1
   34    38	 1
   34    39	 1
   34    48	 1
   34    49	 1
   34    47	 1
   34    72	 1
   35    37	 1
   35    54	 1
   35    50	 1
   36    70	 1
   36    71	 1
   36    48	 1
   36    49	 1
   36    47	 1
   37    70	 1
   37    71	 1
   37    41	 1
   37    73	 1
   37    74	 1
   37    44	 1
   37    77	 1
   37    78	 1
   38    40	 1
   38    43	 1
   39    42	 1
   39    75	 1
   39    76	 1
   39    45	 1
   39    79	 1
   39    80	 1
   40    44	 1
   40    77	 1
   40    78	 1
   40    89	 1
   40    90	 1
   40    91	 1
   41    43	 1
   42    73	 1
   42    74	 1
   43    73	 1
   43    74	 1
   43    86	 1
   43    87	 1
   43    88	 1
   45    77	 1
   45    78	 1
   46    71	 1
   46    72	 1
   46    53	 1
   46    85	 1
   46    51	 1
   46    81	 1
   47    54	 1
   47    50	 1
   48    54	 1
   48    50	 1
   49    52	 1
   49    82	 1
   49    84	 1
   50    53	 1
   50    85	 1
   50    83	 1
   51    54	 1
   51    84	 1
   52    81	 1
   52    85	 1
   53    82	 1
   54    81	 1
   54    83	 1
   55    61	 1
   55    56	 1
   55    57	 1
   61    62	 1
   61    63	 1
   67    68	 1
   68    69	 1
   73    75	 1
   73    76	 1
   74    75	 1
   74    76	 1
   75    89	 1
   75    90	 1
   75    91	 1
   76    89	 1
   76    90	 1
   76    91	 1
   77    79	 1
   77    80	 1
   78    79	 1
   78    80	 1
   79    86	 1
   79    87	 1
   79    88	 1
   80    86	 1
   80    87	 1
   80    88	 1
   81    82	 1
   82    83	 1
   83    84	 1
   84    85	 1

[ angles ]
;	ai	  aj	ak funct			c0			  c1			c2			  c3
   31     1     2	5 ;     CG2R61      CG2O1      OG2D1
   31     1     3	5 ;     CG2R61      CG2O1      NG2S1
    2     1     3	5 ;      OG2D1      CG2O1      NG2S1
    1     3     4	5 ;      CG2O1      NG2S1       HGP1
    1     3     5	5 ;      CG2O1      NG2S1      CG311
    4     3     5	5 ;       HGP1      NG2S1      CG311
    3     5    15	5 ;      NG2S1      CG311      CG311
    3     5     6	5 ;      NG2S1      CG311      CG321
    3     5    55	5 ;      NG2S1      CG311       HGA1
   15     5     6	5 ;      CG311      CG311      CG321
   15     5    55	5 ;      CG311      CG311       HGA1
    6     5    55	5 ;      CG321      CG311       HGA1
    5     6     7	5 ;      CG311      CG321     CG2R61
    5     6    56	5 ;      CG311      CG321       HGA2
    5     6    57	5 ;      CG311      CG321       HGA2
    7     6    56	5 ;     CG2R61      CG321       HGA2
    7     6    57	5 ;     CG2R61      CG321       HGA2
   56     6    57	5 ;       HGA2      CG321       HGA2
    6     7     8	5 ;      CG321     CG2R61     CG2R61
    6     7    14	5 ;      CG321     CG2R61     CG2R61
    8     7    14	5 ;     CG2R61     CG2R61     CG2R61
    7     8     9	5 ;     CG2R61     CG2R61     CG2R66
    7     8    58	5 ;     CG2R61     CG2R61      HGR62
    9     8    58	5 ;     CG2R66     CG2R61      HGR62
    8     9    10	5 ;     CG2R61     CG2R66       FGR1
    8     9    11	5 ;     CG2R61     CG2R66     CG2R61
   10     9    11	5 ;       FGR1     CG2R66     CG2R61
    9    11    12	5 ;     CG2R66     CG2R61     CG2R66
    9    11    59	5 ;     CG2R66     CG2R61      HGR62
   12    11    59	5 ;     CG2R66     CG2R61      HGR62
   14    12    11	5 ;     CG2R61     CG2R66     CG2R61
   14    12    13	5 ;     CG2R61     CG2R66       FGR1
   11    12    13	5 ;     CG2R61     CG2R66       FGR1
    7    14    12	5 ;     CG2R61     CG2R61     CG2R66
    7    14    60	5 ;     CG2R61     CG2R61      HGR62
   12    14    60	5 ;     CG2R66     CG2R61      HGR62
   16    15     5	5 ;      CG324      CG311      CG311
   16    15    29	5 ;      CG324      CG311      OG311
   16    15    61	5 ;      CG324      CG311       HGA1
    5    15    29	5 ;      CG311      CG311      OG311
    5    15    61	5 ;      CG311      CG311       HGA1
   29    15    61	5 ;      OG311      CG311       HGA1
   17    16    15	5 ;      NG3P2      CG324      CG311
   17    16    62	5 ;      NG3P2      CG324       HGA2
   17    16    63	5 ;      NG3P2      CG324       HGA2
   15    16    62	5 ;      CG311      CG324       HGA2
   15    16    63	5 ;      CG311      CG324       HGA2
   62    16    63	5 ;       HGA2      CG324       HGA2
   20    17    18	5 ;      CG324      NG3P2       HGP2
   20    17    16	5 ;      CG324      NG3P2      CG324
   20    17    19	5 ;      CG324      NG3P2       HGP2
   18    17    16	5 ;       HGP2      NG3P2      CG324
   18    17    19	5 ;       HGP2      NG3P2       HGP2
   16    17    19	5 ;      CG324      NG3P2       HGP2
   21    20    17	5 ;     CG2R61      CG324      NG3P2
   21    20    64	5 ;     CG2R61      CG324       HGA2
   21    20    65	5 ;     CG2R61      CG324       HGA2
   17    20    64	5 ;      NG3P2      CG324       HGA2
   17    20    65	5 ;      NG3P2      CG324       HGA2
   64    20    65	5 ;       HGA2      CG324       HGA2
   26    21    22	5 ;     CG2R61     CG2R61     CG2R61
   26    21    20	5 ;     CG2R61     CG2R61      CG324
   22    21    20	5 ;     CG2R61     CG2R61      CG324
   23    22    21	5 ;     CG2R61     CG2R61     CG2R61
   23    22    66	5 ;     CG2R61     CG2R61      HGR61
   21    22    66	5 ;     CG2R61     CG2R61      HGR61
   24    23    27	5 ;     CG2R61     CG2R61      OG301
   24    23    22	5 ;     CG2R61     CG2R61     CG2R61
   27    23    22	5 ;      OG301     CG2R61     CG2R61
   25    24    23	5 ;     CG2R61     CG2R61     CG2R61
   25    24    67	5 ;     CG2R61     CG2R61      HGR61
   23    24    67	5 ;     CG2R61     CG2R61      HGR61
   24    25    26	5 ;     CG2R61     CG2R61     CG2R61
   24    25    68	5 ;     CG2R61     CG2R61      HGR61
   26    25    68	5 ;     CG2R61     CG2R61      HGR61
   25    26    21	5 ;     CG2R61     CG2R61     CG2R61
   25    26    69	5 ;     CG2R61     CG2R61      HGR61
   21    26    69	5 ;     CG2R61     CG2R61      HGR61
   23    27    28	5 ;     CG2R61      OG301      CG331
   27    28    92	5 ;      OG301      CG331       HGA3
   27    28    93	5 ;      OG301      CG331       HGA3
   27    28    94	5 ;      OG301      CG331       HGA3
   92    28    93	5 ;       HGA3      CG331       HGA3
   92    28    94	5 ;       HGA3      CG331       HGA3
   93    28    94	5 ;       HGA3      CG331       HGA3
   15    29    30	5 ;      CG311      OG311       HGP1
   36    31    32	5 ;     CG2R61     CG2R61     CG2R61
   36    31     1	5 ;     CG2R61     CG2R61      CG2O1
   32    31     1	5 ;     CG2R61     CG2R61      CG2O1
   33    32    31	5 ;     CG2R61     CG2R61     CG2R61
   33    32    70	5 ;     CG2R61     CG2R61      HGR61
   31    32    70	5 ;     CG2R61     CG2R61      HGR61
   34    33    37	5 ;     CG2R61     CG2R61      CG2O1
   34    33    32	5 ;     CG2R61     CG2R61     CG2R61
   37    33    32	5 ;      CG2O1     CG2R61     CG2R61
   35    34    33	5 ;     CG2R61     CG2R61     CG2R61
   35    34    71	5 ;     CG2R61     CG2R61      HGR61
   33    34    71	5 ;     CG2R61     CG2R61      HGR61
   46    35    34	5 ;      SG3O2     CG2R61     CG2R61
   46    35    36	5 ;      SG3O2     CG2R61     CG2R61
   34    35    36	5 ;     CG2R61     CG2R61     CG2R61
   35    36    31	5 ;     CG2R61     CG2R61     CG2R61
   35    36    72	5 ;     CG2R61     CG2R61      HGR61
   31    36    72	5 ;     CG2R61     CG2R61      HGR61
   33    37    38	5 ;     CG2R61      CG2O1      OG2D1
   33    37    39	5 ;     CG2R61      CG2O1      NG2S0
   38    37    39	5 ;      OG2D1      CG2O1      NG2S0
   37    39    40	5 ;      CG2O1      NG2S0      CG321
   37    39    43	5 ;      CG2O1      NG2S0      CG321
   40    39    43	5 ;      CG321      NG2S0      CG321
   41    40    39	5 ;      CG321      CG321      NG2S0
   41    40    73	5 ;      CG321      CG321       HGA2
   41    40    74	5 ;      CG321      CG321       HGA2
   39    40    73	5 ;      NG2S0      CG321       HGA2
   39    40    74	5 ;      NG2S0      CG321       HGA2
   73    40    74	5 ;       HGA2      CG321       HGA2
   42    41    40	5 ;      CG331      CG321      CG321
   42    41    75	5 ;      CG331      CG321       HGA2
   42    41    76	5 ;      CG331      CG321       HGA2
   40    41    75	5 ;      CG321      CG321       HGA2
   40    41    76	5 ;      CG321      CG321       HGA2
   75    41    76	5 ;       HGA2      CG321       HGA2
   41    42    89	5 ;      CG321      CG331       HGA3
   41    42    90	5 ;      CG321      CG331       HGA3
   41    42    91	5 ;      CG321      CG331       HGA3
   89    42    90	5 ;       HGA3      CG331       HGA3
   89    42    91	5 ;       HGA3      CG331       HGA3
   90    42    91	5 ;       HGA3      CG331       HGA3
   44    43    39	5 ;      CG321      CG321      NG2S0
   44    43    77	5 ;      CG321      CG321       HGA2
   44    43    78	5 ;      CG321      CG321       HGA2
   39    43    77	5 ;      NG2S0      CG321       HGA2
   39    43    78	5 ;      NG2S0      CG321       HGA2
   77    43    78	5 ;       HGA2      CG321       HGA2
   45    44    43	5 ;      CG331      CG321      CG321
   45    44    79	5 ;      CG331      CG321       HGA2
   45    44    80	5 ;      CG331      CG321       HGA2
   43    44    79	5 ;      CG321      CG321       HGA2
   43    44    80	5 ;      CG321      CG321       HGA2
   79    44    80	5 ;       HGA2      CG321       HGA2
   44    45    86	5 ;      CG321      CG331       HGA3
   44    45    87	5 ;      CG321      CG331       HGA3
   44    45    88	5 ;      CG321      CG331       HGA3
   86    45    87	5 ;       HGA3      CG331       HGA3
   86    45    88	5 ;       HGA3      CG331       HGA3
   87    45    88	5 ;       HGA3      CG331       HGA3
   48    46    49	5 ;      OG2P1      SG3O2     CG2R61
   48    46    47	5 ;      OG2P1      SG3O2      OG2P1
   48    46    35	5 ;      OG2P1      SG3O2     CG2R61
   49    46    47	5 ;     CG2R61      SG3O2      OG2P1
   49    46    35	5 ;     CG2R61      SG3O2     CG2R61
   47    46    35	5 ;      OG2P1      SG3O2     CG2R61
   54    49    46	5 ;     CG2R61     CG2R61      SG3O2
   54    49    50	5 ;     CG2R61     CG2R61     CG2R61
   46    49    50	5 ;      SG3O2     CG2R61     CG2R61
   49    50    51	5 ;     CG2R61     CG2R61     CG2R61
   49    50    81	5 ;     CG2R61     CG2R61      HGR61
   51    50    81	5 ;     CG2R61     CG2R61      HGR61
   52    51    50	5 ;     CG2R61     CG2R61     CG2R61
   52    51    82	5 ;     CG2R61     CG2R61      HGR61
   50    51    82	5 ;     CG2R61     CG2R61      HGR61
   53    52    51	5 ;     CG2R61     CG2R61     CG2R61
   53    52    83	5 ;     CG2R61     CG2R61      HGR61
   51    52    83	5 ;     CG2R61     CG2R61      HGR61
   54    53    52	5 ;     CG2R61     CG2R61     CG2R61
   54    53    84	5 ;     CG2R61     CG2R61      HGR61
   52    53    84	5 ;     CG2R61     CG2R61      HGR61
   53    54    49	5 ;     CG2R61     CG2R61     CG2R61
   53    54    85	5 ;     CG2R61     CG2R61      HGR61
   49    54    85	5 ;     CG2R61     CG2R61      HGR61

[ dihedrals ]
;	ai	  aj	ak	  al funct			  c0			c1			  c2			c3			  c4			c5
    2     1    31    36	 9 ;      OG2D1      CG2O1     CG2R61     CG2R61
    2     1    31    32	 9 ;      OG2D1      CG2O1     CG2R61     CG2R61
    3     1    31    36	 9 ;      NG2S1      CG2O1     CG2R61     CG2R61
    3     1    31    32	 9 ;      NG2S1      CG2O1     CG2R61     CG2R61
   31     1     3     4	 9 ;     CG2R61      CG2O1      NG2S1       HGP1
   31     1     3     5	 9 ;     CG2R61      CG2O1      NG2S1      CG311
    2     1     3     4	 9 ;      OG2D1      CG2O1      NG2S1       HGP1
    2     1     3     5	 9 ;      OG2D1      CG2O1      NG2S1      CG311
    1     3     5    15	 9 ;      CG2O1      NG2S1      CG311      CG311
    1     3     5     6	 9 ;      CG2O1      NG2S1      CG311      CG321
    1     3     5    55	 9 ;      CG2O1      NG2S1      CG311       HGA1
    4     3     5    15	 9 ;       HGP1      NG2S1      CG311      CG311
    4     3     5     6	 9 ;       HGP1      NG2S1      CG311      CG321
    4     3     5    55	 9 ;       HGP1      NG2S1      CG311       HGA1
    3     5    15    16	 9 ;      NG2S1      CG311      CG311      CG324
    3     5    15    29	 9 ;      NG2S1      CG311      CG311      OG311
    3     5    15    61	 9 ;      NG2S1      CG311      CG311       HGA1
    6     5    15    16	 9 ;      CG321      CG311      CG311      CG324
    6     5    15    29	 9 ;      CG321      CG311      CG311      OG311
    6     5    15    61	 9 ;      CG321      CG311      CG311       HGA1
   55     5    15    16	 9 ;       HGA1      CG311      CG311      CG324
   55     5    15    29	 9 ;       HGA1      CG311      CG311      OG311
   55     5    15    61	 9 ;       HGA1      CG311      CG311       HGA1
    3     5     6     7	 9 ;      NG2S1      CG311      CG321     CG2R61
    3     5     6    56	 9 ;      NG2S1      CG311      CG321       HGA2
    3     5     6    57	 9 ;      NG2S1      CG311      CG321       HGA2
   15     5     6     7	 9 ;      CG311      CG311      CG321     CG2R61
   15     5     6    56	 9 ;      CG311      CG311      CG321       HGA2
   15     5     6    57	 9 ;      CG311      CG311      CG321       HGA2
   55     5     6     7	 9 ;       HGA1      CG311      CG321     CG2R61
   55     5     6    56	 9 ;       HGA1      CG311      CG321       HGA2
   55     5     6    57	 9 ;       HGA1      CG311      CG321       HGA2
    5     6     7     8	 9 ;      CG311      CG321     CG2R61     CG2R61
    5     6     7    14	 9 ;      CG311      CG321     CG2R61     CG2R61
   56     6     7     8	 9 ;       HGA2      CG321     CG2R61     CG2R61
   56     6     7    14	 9 ;       HGA2      CG321     CG2R61     CG2R61
   57     6     7     8	 9 ;       HGA2      CG321     CG2R61     CG2R61
   57     6     7    14	 9 ;       HGA2      CG321     CG2R61     CG2R61
    6     7     8     9	 9 ;      CG321     CG2R61     CG2R61     CG2R66
    6     7     8    58	 9 ;      CG321     CG2R61     CG2R61      HGR62
   14     7     8     9	 9 ;     CG2R61     CG2R61     CG2R61     CG2R66
   14     7     8    58	 9 ;     CG2R61     CG2R61     CG2R61      HGR62
    6     7    14    12	 9 ;      CG321     CG2R61     CG2R61     CG2R66
    6     7    14    60	 9 ;      CG321     CG2R61     CG2R61      HGR62
    8     7    14    12	 9 ;     CG2R61     CG2R61     CG2R61     CG2R66
    8     7    14    60	 9 ;     CG2R61     CG2R61     CG2R61      HGR62
    7     8     9    10	 9 ;     CG2R61     CG2R61     CG2R66       FGR1
    7     8     9    11	 9 ;     CG2R61     CG2R61     CG2R66     CG2R61
   58     8     9    10	 9 ;      HGR62     CG2R61     CG2R66       FGR1
   58     8     9    11	 9 ;      HGR62     CG2R61     CG2R66     CG2R61
    8     9    11    12	 9 ;     CG2R61     CG2R66     CG2R61     CG2R66
    8     9    11    59	 9 ;     CG2R61     CG2R66     CG2R61      HGR62
   10     9    11    12	 9 ;       FGR1     CG2R66     CG2R61     CG2R66
   10     9    11    59	 9 ;       FGR1     CG2R66     CG2R61      HGR62
    9    11    12    14	 9 ;     CG2R66     CG2R61     CG2R66     CG2R61
    9    11    12    13	 9 ;     CG2R66     CG2R61     CG2R66       FGR1
   59    11    12    14	 9 ;      HGR62     CG2R61     CG2R66     CG2R61
   59    11    12    13	 9 ;      HGR62     CG2R61     CG2R66       FGR1
   11    12    14     7	 9 ;     CG2R61     CG2R66     CG2R61     CG2R61
   11    12    14    60	 9 ;     CG2R61     CG2R66     CG2R61      HGR62
   13    12    14     7	 9 ;       FGR1     CG2R66     CG2R61     CG2R61
   13    12    14    60	 9 ;       FGR1     CG2R66     CG2R61      HGR62
    5    15    16    17	 9 ;      CG311      CG311      CG324      NG3P2
    5    15    16    62	 9 ;      CG311      CG311      CG324       HGA2
    5    15    16    63	 9 ;      CG311      CG311      CG324       HGA2
   29    15    16    17	 9 ;      OG311      CG311      CG324      NG3P2
   29    15    16    62	 9 ;      OG311      CG311      CG324       HGA2
   29    15    16    63	 9 ;      OG311      CG311      CG324       HGA2
   61    15    16    17	 9 ;       HGA1      CG311      CG324      NG3P2
   61    15    16    62	 9 ;       HGA1      CG311      CG324       HGA2
   61    15    16    63	 9 ;       HGA1      CG311      CG324       HGA2
   16    15    29    30	 9 ;      CG324      CG311      OG311       HGP1
    5    15    29    30	 9 ;      CG311      CG311      OG311       HGP1
   61    15    29    30	 9 ;       HGA1      CG311      OG311       HGP1
   15    16    17    20	 9 ;      CG311      CG324      NG3P2      CG324
   15    16    17    18	 9 ;      CG311      CG324      NG3P2       HGP2
   15    16    17    19	 9 ;      CG311      CG324      NG3P2       HGP2
   62    16    17    20	 9 ;       HGA2      CG324      NG3P2      CG324
   62    16    17    18	 9 ;       HGA2      CG324      NG3P2       HGP2
   62    16    17    19	 9 ;       HGA2      CG324      NG3P2       HGP2
   63    16    17    20	 9 ;       HGA2      CG324      NG3P2      CG324
   63    16    17    18	 9 ;       HGA2      CG324      NG3P2       HGP2
   63    16    17    19	 9 ;       HGA2      CG324      NG3P2       HGP2
   18    17    20    21	 9 ;       HGP2      NG3P2      CG324     CG2R61
   18    17    20    64	 9 ;       HGP2      NG3P2      CG324       HGA2
   18    17    20    65	 9 ;       HGP2      NG3P2      CG324       HGA2
   16    17    20    21	 9 ;      CG324      NG3P2      CG324     CG2R61
   16    17    20    64	 9 ;      CG324      NG3P2      CG324       HGA2
   16    17    20    65	 9 ;      CG324      NG3P2      CG324       HGA2
   19    17    20    21	 9 ;       HGP2      NG3P2      CG324     CG2R61
   19    17    20    64	 9 ;       HGP2      NG3P2      CG324       HGA2
   19    17    20    65	 9 ;       HGP2      NG3P2      CG324       HGA2
   17    20    21    26	 9 ;      NG3P2      CG324     CG2R61     CG2R61
   17    20    21    22	 9 ;      NG3P2      CG324     CG2R61     CG2R61
   64    20    21    26	 9 ;       HGA2      CG324     CG2R61     CG2R61
   64    20    21    22	 9 ;       HGA2      CG324     CG2R61     CG2R61
   65    20    21    26	 9 ;       HGA2      CG324     CG2R61     CG2R61
   65    20    21    22	 9 ;       HGA2      CG324     CG2R61     CG2R61
   22    21    26    25	 9 ;     CG2R61     CG2R61     CG2R61     CG2R61
   22    21    26    69	 9 ;     CG2R61     CG2R61     CG2R61      HGR61
   20    21    26    25	 9 ;      CG324     CG2R61     CG2R61     CG2R61
   20    21    26    69	 9 ;      CG324     CG2R61     CG2R61      HGR61
   26    21    22    23	 9 ;     CG2R61     CG2R61     CG2R61     CG2R61
   26    21    22    66	 9 ;     CG2R61     CG2R61     CG2R61      HGR61
   20    21    22    23	 9 ;      CG324     CG2R61     CG2R61     CG2R61
   20    21    22    66	 9 ;      CG324     CG2R61     CG2R61      HGR61
   21    22    23    24	 9 ;     CG2R61     CG2R61     CG2R61     CG2R61
   21    22    23    27	 9 ;     CG2R61     CG2R61     CG2R61      OG301
   66    22    23    24	 9 ;      HGR61     CG2R61     CG2R61     CG2R61
   66    22    23    27	 9 ;      HGR61     CG2R61     CG2R61      OG301
   27    23    24    25	 9 ;      OG301     CG2R61     CG2R61     CG2R61
   27    23    24    67	 9 ;      OG301     CG2R61     CG2R61      HGR61
   22    23    24    25	 9 ;     CG2R61     CG2R61     CG2R61     CG2R61
   22    23    24    67	 9 ;     CG2R61     CG2R61     CG2R61      HGR61
   24    23    27    28	 9 ;     CG2R61     CG2R61      OG301      CG331
   22    23    27    28	 9 ;     CG2R61     CG2R61      OG301      CG331
   23    24    25    26	 9 ;     CG2R61     CG2R61     CG2R61     CG2R61
   23    24    25    68	 9 ;     CG2R61     CG2R61     CG2R61      HGR61
   67    24    25    26	 9 ;      HGR61     CG2R61     CG2R61     CG2R61
   67    24    25    68	 9 ;      HGR61     CG2R61     CG2R61      HGR61
   24    25    26    21	 9 ;     CG2R61     CG2R61     CG2R61     CG2R61
   24    25    26    69	 9 ;     CG2R61     CG2R61     CG2R61      HGR61
   68    25    26    21	 9 ;      HGR61     CG2R61     CG2R61     CG2R61
   68    25    26    69	 9 ;      HGR61     CG2R61     CG2R61      HGR61
   23    27    28    92	 9 ;     CG2R61      OG301      CG331       HGA3
   23    27    28    93	 9 ;     CG2R61      OG301      CG331       HGA3
   23    27    28    94	 9 ;     CG2R61      OG301      CG331       HGA3
   32    31    36    35	 9 ;     CG2R61     CG2R61     CG2R61     CG2R61
   32    31    36    72	 9 ;     CG2R61     CG2R61     CG2R61      HGR61
    1    31    36    35	 9 ;      CG2O1     CG2R61     CG2R61     CG2R61
    1    31    36    72	 9 ;      CG2O1     CG2R61     CG2R61      HGR61
   36    31    32    33	 9 ;     CG2R61     CG2R61     CG2R61     CG2R61
   36    31    32    70	 9 ;     CG2R61     CG2R61     CG2R61      HGR61
    1    31    32    33	 9 ;      CG2O1     CG2R61     CG2R61     CG2R61
    1    31    32    70	 9 ;      CG2O1     CG2R61     CG2R61      HGR61
   31    32    33    34	 9 ;     CG2R61     CG2R61     CG2R61     CG2R61
   31    32    33    37	 9 ;     CG2R61     CG2R61     CG2R61      CG2O1
   70    32    33    34	 9 ;      HGR61     CG2R61     CG2R61     CG2R61
   70    32    33    37	 9 ;      HGR61     CG2R61     CG2R61      CG2O1
   37    33    34    35	 9 ;      CG2O1     CG2R61     CG2R61     CG2R61
   37    33    34    71	 9 ;      CG2O1     CG2R61     CG2R61      HGR61
   32    33    34    35	 9 ;     CG2R61     CG2R61     CG2R61     CG2R61
   32    33    34    71	 9 ;     CG2R61     CG2R61     CG2R61      HGR61
   34    33    37    38	 9 ;     CG2R61     CG2R61      CG2O1      OG2D1
   34    33    37    39	 9 ;     CG2R61     CG2R61      CG2O1      NG2S0
   32    33    37    38	 9 ;     CG2R61     CG2R61      CG2O1      OG2D1
   32    33    37    39	 9 ;     CG2R61     CG2R61      CG2O1      NG2S0
   33    34    35    46	 9 ;     CG2R61     CG2R61     CG2R61      SG3O2
   33    34    35    36	 9 ;     CG2R61     CG2R61     CG2R61     CG2R61
   71    34    35    46	 9 ;      HGR61     CG2R61     CG2R61      SG3O2
   71    34    35    36	 9 ;      HGR61     CG2R61     CG2R61     CG2R61
   34    35    46    48	 9 ;     CG2R61     CG2R61      SG3O2      OG2P1
   34    35    46    49	 9 ;     CG2R61     CG2R61      SG3O2     CG2R61
   34    35    46    47	 9 ;     CG2R61     CG2R61      SG3O2      OG2P1
   36    35    46    48	 9 ;     CG2R61     CG2R61      SG3O2      OG2P1
   36    35    46    49	 9 ;     CG2R61     CG2R61      SG3O2     CG2R61
   36    35    46    47	 9 ;     CG2R61     CG2R61      SG3O2      OG2P1
   46    35    36    31	 9 ;      SG3O2     CG2R61     CG2R61     CG2R61
   46    35    36    72	 9 ;      SG3O2     CG2R61     CG2R61      HGR61
   34    35    36    31	 9 ;     CG2R61     CG2R61     CG2R61     CG2R61
   34    35    36    72	 9 ;     CG2R61     CG2R61     CG2R61      HGR61
   33    37    39    40	 9 ;     CG2R61      CG2O1      NG2S0      CG321
   33    37    39    43	 9 ;     CG2R61      CG2O1      NG2S0      CG321
   38    37    39    40	 9 ;      OG2D1      CG2O1      NG2S0      CG321
   38    37    39    43	 9 ;      OG2D1      CG2O1      NG2S0      CG321
   37    39    40    41	 9 ;      CG2O1      NG2S0      CG321      CG321
   37    39    40    73	 9 ;      CG2O1      NG2S0      CG321       HGA2
   37    39    40    74	 9 ;      CG2O1      NG2S0      CG321       HGA2
   43    39    40    41	 9 ;      CG321      NG2S0      CG321      CG321
   43    39    40    73	 9 ;      CG321      NG2S0      CG321       HGA2
   43    39    40    74	 9 ;      CG321      NG2S0      CG321       HGA2
   37    39    43    44	 9 ;      CG2O1      NG2S0      CG321      CG321
   37    39    43    77	 9 ;      CG2O1      NG2S0      CG321       HGA2
   37    39    43    78	 9 ;      CG2O1      NG2S0      CG321       HGA2
   40    39    43    44	 9 ;      CG321      NG2S0      CG321      CG321
   40    39    43    77	 9 ;      CG321      NG2S0      CG321       HGA2
   40    39    43    78	 9 ;      CG321      NG2S0      CG321       HGA2
   39    40    41    42	 9 ;      NG2S0      CG321      CG321      CG331
   39    40    41    75	 9 ;      NG2S0      CG321      CG321       HGA2
   39    40    41    76	 9 ;      NG2S0      CG321      CG321       HGA2
   73    40    41    42	 9 ;       HGA2      CG321      CG321      CG331
   73    40    41    75	 9 ;       HGA2      CG321      CG321       HGA2
   73    40    41    76	 9 ;       HGA2      CG321      CG321       HGA2
   74    40    41    42	 9 ;       HGA2      CG321      CG321      CG331
   74    40    41    75	 9 ;       HGA2      CG321      CG321       HGA2
   74    40    41    76	 9 ;       HGA2      CG321      CG321       HGA2
   40    41    42    89	 9 ;      CG321      CG321      CG331       HGA3
   40    41    42    90	 9 ;      CG321      CG321      CG331       HGA3
   40    41    42    91	 9 ;      CG321      CG321      CG331       HGA3
   75    41    42    89	 9 ;       HGA2      CG321      CG331       HGA3
   75    41    42    90	 9 ;       HGA2      CG321      CG331       HGA3
   75    41    42    91	 9 ;       HGA2      CG321      CG331       HGA3
   76    41    42    89	 9 ;       HGA2      CG321      CG331       HGA3
   76    41    42    90	 9 ;       HGA2      CG321      CG331       HGA3
   76    41    42    91	 9 ;       HGA2      CG321      CG331       HGA3
   39    43    44    45	 9 ;      NG2S0      CG321      CG321      CG331
   39    43    44    79	 9 ;      NG2S0      CG321      CG321       HGA2
   39    43    44    80	 9 ;      NG2S0      CG321      CG321       HGA2
   77    43    44    45	 9 ;       HGA2      CG321      CG321      CG331
   77    43    44    79	 9 ;       HGA2      CG321      CG321       HGA2
   77    43    44    80	 9 ;       HGA2      CG321      CG321       HGA2
   78    43    44    45	 9 ;       HGA2      CG321      CG321      CG331
   78    43    44    79	 9 ;       HGA2      CG321      CG321       HGA2
   78    43    44    80	 9 ;       HGA2      CG321      CG321       HGA2
   43    44    45    86	 9 ;      CG321      CG321      CG331       HGA3
   43    44    45    87	 9 ;      CG321      CG321      CG331       HGA3
   43    44    45    88	 9 ;      CG321      CG321      CG331       HGA3
   79    44    45    86	 9 ;       HGA2      CG321      CG331       HGA3
   79    44    45    87	 9 ;       HGA2      CG321      CG331       HGA3
   79    44    45    88	 9 ;       HGA2      CG321      CG331       HGA3
   80    44    45    86	 9 ;       HGA2      CG321      CG331       HGA3
   80    44    45    87	 9 ;       HGA2      CG321      CG331       HGA3
   80    44    45    88	 9 ;       HGA2      CG321      CG331       HGA3
   48    46    49    54	 9 ;      OG2P1      SG3O2     CG2R61     CG2R61
   48    46    49    50	 9 ;      OG2P1      SG3O2     CG2R61     CG2R61
   47    46    49    54	 9 ;      OG2P1      SG3O2     CG2R61     CG2R61
   47    46    49    50	 9 ;      OG2P1      SG3O2     CG2R61     CG2R61
   35    46    49    54	 9 ;     CG2R61      SG3O2     CG2R61     CG2R61
   35    46    49    50	 9 ;     CG2R61      SG3O2     CG2R61     CG2R61
   46    49    54    53	 9 ;      SG3O2     CG2R61     CG2R61     CG2R61
   46    49    54    85	 9 ;      SG3O2     CG2R61     CG2R61      HGR61
   50    49    54    53	 9 ;     CG2R61     CG2R61     CG2R61     CG2R61
   50    49    54    85	 9 ;     CG2R61     CG2R61     CG2R61      HGR61
   54    49    50    51	 9 ;     CG2R61     CG2R61     CG2R61     CG2R61
   54    49    50    81	 9 ;     CG2R61     CG2R61     CG2R61      HGR61
   46    49    50    51	 9 ;      SG3O2     CG2R61     CG2R61     CG2R61
   46    49    50    81	 9 ;      SG3O2     CG2R61     CG2R61      HGR61
   49    50    51    52	 9 ;     CG2R61     CG2R61     CG2R61     CG2R61
   49    50    51    82	 9 ;     CG2R61     CG2R61     CG2R61      HGR61
   81    50    51    52	 9 ;      HGR61     CG2R61     CG2R61     CG2R61
   81    50    51    82	 9 ;      HGR61     CG2R61     CG2R61      HGR61
   50    51    52    53	 9 ;     CG2R61     CG2R61     CG2R61     CG2R61
   50    51    52    83	 9 ;     CG2R61     CG2R61     CG2R61      HGR61
   82    51    52    53	 9 ;      HGR61     CG2R61     CG2R61     CG2R61
   82    51    52    83	 9 ;      HGR61     CG2R61     CG2R61      HGR61
   51    52    53    54	 9 ;     CG2R61     CG2R61     CG2R61     CG2R61
   51    52    53    84	 9 ;     CG2R61     CG2R61     CG2R61      HGR61
   83    52    53    54	 9 ;      HGR61     CG2R61     CG2R61     CG2R61
   83    52    53    84	 9 ;      HGR61     CG2R61     CG2R61      HGR61
   52    53    54    49	 9 ;     CG2R61     CG2R61     CG2R61     CG2R61
   52    53    54    85	 9 ;     CG2R61     CG2R61     CG2R61      HGR61
   84    53    54    49	 9 ;      HGR61     CG2R61     CG2R61     CG2R61
   84    53    54    85	 9 ;      HGR61     CG2R61     CG2R61      HGR61

[ dihedrals ]
;	ai	  aj	ak	  al funct			  c0			c1			  c2			c3
    1    31     3     2	 2
   37    33    39    38	 2

