GROup of MAchos and Cynical Suckers
  126
    1LIG     C1    1  -1.316   0.636  -2.024
    1LIG     N1    2  -1.349   0.697  -1.892
    1LIG     C2    3  -1.480   0.728  -1.862
    1LIG     O1    4  -1.569   0.697  -1.942
    1LIG     H1    5  -1.275   0.752  -1.849
    1LIG     C3    6  -1.518   0.798  -1.725
    1LIG     C4    7  -1.548   0.947  -1.728
    1LIG     C5    8  -1.690   0.982  -1.766
    1LIG     O2    9  -1.780   0.899  -1.779
    1LIG     N2   10  -1.711   1.116  -1.782
    1LIG     H2   11  -1.638   1.182  -1.751
    1LIG     H3   12  -1.806   1.150  -1.781
    1LIG     N3   13  -1.614   0.719  -1.643
    1LIG     C6   14  -1.616   0.729  -1.506
    1LIG     O3   15  -1.536   0.798  -1.443
    1LIG     H4   16  -1.669   0.649  -1.692
    1LIG     C7   17  -1.721   0.646  -1.426
    1LIG     N4   18  -1.673   0.570  -1.310
    1LIG     C8   19  -1.671   0.598  -1.176
    1LIG     O4   20  -1.719   0.699  -1.126
    1LIG     H5   21  -1.620   0.489  -1.340
    1LIG     C9   22  -1.623   0.478  -1.087
    1LIG    C10   23  -1.696   0.343  -1.102
    1LIG    C11   24  -1.755   0.280  -0.975
    1LIG    C12   25  -1.668   0.293  -0.849
    1LIG     O5   26  -1.720   0.347  -0.750
    1LIG     O6   27  -1.554   0.238  -0.860
    1LIG     N5   28  -1.475   0.461  -1.093
    1LIG     H6   29  -1.431   0.494  -1.178
    1LIG     H7   30  -1.431   0.523  -1.020
    1LIG     H8   31  -1.446   0.366  -1.066
    1LIG    C13   32  -1.863   0.710  -1.430
    1LIG    C14   33  -1.869   0.863  -1.419
    1LIG    C15   34  -1.958   0.659  -1.539
    1LIG    C16   35  -1.180   0.695  -2.071
    1LIG    C17   36  -1.164   0.733  -2.220
    1LIG    C18   37  -1.295   0.780  -2.284
    1LIG    C19   38  -1.059   0.845  -2.233
    1LIG    C20   39  -1.317   0.480  -2.023
    1LIG    C21   40  -1.334   0.408  -2.160
    1LIG    C22   41  -1.459   0.446  -2.243
    1LIG    C23   42  -1.442   0.405  -2.391
    1LIG    C24   43  -1.592   0.385  -2.192
    1LIG     O7   44  -1.643   0.288  -2.248
    1LIG     N6   45  -1.657   0.450  -2.090
    1LIG     H9   46  -1.611   0.522  -2.036
    1LIG    CA1   47  -1.790   0.409  -2.042
    1LIG    CB1   48  -1.901   0.473  -2.124
    1LIG    C25   49  -1.803   0.431  -1.887
    1LIG     O8   50  -1.891   0.505  -1.844
    1LIG     N7   51  -1.721   0.355  -1.807
    1LIG    H10   52  -1.635   0.319  -1.846
    1LIG    CA2   53  -1.715   0.358  -1.659
    1LIG    CB2   54  -1.827   0.286  -1.582
    1LIG    CG1   55  -1.849   0.319  -1.435
    1LIG     CD   56  -1.989   0.349  -1.382
    1LIG    OE1   57  -2.083   0.319  -1.461
    1LIG    OE2   58  -1.994   0.394  -1.265
    1LIG    C26   59  -1.565   0.338  -1.616
    1LIG     O9   60  -1.534   0.364  -1.499
    1LIG     N8   61  -1.479   0.281  -1.706
    1LIG    H11   62  -1.488   0.317  -1.802
    1LIG    CA3   63  -1.337   0.249  -1.672
    1LIG    CB3   64  -1.262   0.178  -1.788
    1LIG    CG2   65  -1.158   0.079  -1.741
    1LIG    CD2   66  -1.194  -0.028  -1.657
    1LIG    CE2   67  -1.096  -0.110  -1.601
    1LIG     CZ   68  -0.962  -0.088  -1.630
    1LIG    CE1   69  -0.925   0.016  -1.715
    1LIG    CD1   70  -1.022   0.098  -1.772
    1LIG    C27   71  -1.243   0.367  -1.629
    1LIG    OXT   72  -1.164   0.339  -1.533
    1LIG    O10   73  -1.251   0.474  -1.695
    1LIG    O11   74  -1.418   0.434  -1.933
    1LIG    H12   75  -1.418   0.337  -1.936
    1LIG    H13   76  -1.393   0.662  -2.094
    1LIG    H14   77  -1.424   0.796  -1.674
    1LIG    H15   78  -1.529   0.987  -1.631
    1LIG    H16   79  -1.485   0.989  -1.804
    1LIG    H17   80  -1.652   0.509  -0.989
    1LIG    H18   81  -1.627   0.273  -1.143
    1LIG    H19   82  -1.781   0.365  -1.163
    1LIG    H20   83  -1.770   0.176  -0.994
    1LIG    H21   84  -1.844   0.335  -0.954
    1LIG    H22   85  -1.806   0.384  -0.756
    1LIG    H23   86  -1.902   0.671  -1.338
    1LIG    H24   87  -1.832   0.907  -1.509
    1LIG    H25   88  -1.809   0.895  -1.336
    1LIG    H26   89  -1.971   0.894  -1.403
    1LIG    H27   90  -1.925   0.695  -1.634
    1LIG    H28   91  -2.057   0.695  -1.520
    1LIG    H29   92  -1.959   0.552  -1.539
    1LIG    H30   93  -1.161   0.783  -2.014
    1LIG    H31   94  -1.110   0.615  -2.057
    1LIG    H32   95  -1.134   0.645  -2.273
    1LIG    H33   96  -1.329   0.869  -2.234
    1LIG    H34   97  -1.369   0.704  -2.274
    1LIG    H35   98  -1.278   0.802  -2.388
    1LIG    H36   99  -1.092   0.931  -2.180
    1LIG    H37  100  -1.046   0.869  -2.336
    1LIG    H38  101  -0.966   0.811  -2.192
    1LIG    H39  102  -1.218   0.454  -1.993
    1LIG    H40  103  -1.248   0.430  -2.219
    1LIG    H41  104  -1.347   0.305  -2.136
    1LIG    H42  105  -1.466   0.552  -2.232
    1LIG    H43  106  -1.435   0.299  -2.398
    1LIG    H44  107  -1.352   0.449  -2.429
    1LIG    H45  108  -1.526   0.439  -2.447
    1LIG    HA1  109  -1.802   0.303  -2.056
    1LIG    HB1  110  -1.896   0.579  -2.115
    1LIG    HB2  111  -1.997   0.439  -2.089
    1LIG    HB3  112  -1.890   0.446  -2.227
    1LIG    HB4  113  -1.807   0.181  -1.588
    1LIG    HB6  114  -1.916   0.321  -1.630
    1LIG    HG1  115  -1.790   0.405  -1.413
    1LIG    HG2  116  -1.824   0.227  -1.386
    1LIG    HE2  117  -1.914   0.412  -1.218
    1LIG    HA2  118  -1.353   0.185  -1.587
    1LIG    HB5  119  -1.334   0.127  -1.848
    1LIG    HB7  120  -1.211   0.255  -1.842
    1LIG    HD2  121  -1.294  -0.045  -1.637
    1LIG    HE3  122  -1.124  -0.187  -1.539
    1LIG     HZ  123  -0.889  -0.148  -1.588
    1LIG    HE1  124  -0.825   0.032  -1.736
    1LIG    HD1  125  -0.995   0.173  -1.837
    1LIG    HXT  126  -1.168   0.255  -1.491
   0.00000   0.00000   0.00000
