; Created by cgenff_charmm2gmx.py

[ moleculetype ]
; Name			   nrexcl
LIG				 3

[ atoms ]
;	 nr		  type	resnr residue  atom   cgnr	   charge		mass  typeB    chargeB		massB
; residue	 1 LIG rtp LIG q	qsum
     1      CG311      1    LIG     C1      1     -0.042     12.011   ;
     2      NG2S1      1    LIG     N1      2     -0.401     14.007   ;
     3      CG2O1      1    LIG     C2      3      0.493     12.011   ;
     4      OG2D1      1    LIG     O1      4     -0.509     15.999   ;
     5       HGP1      1    LIG     H1      5      0.269      1.008   ;
     6      CG311      1    LIG     C3      6      0.048     12.011   ;
     7      CG321      1    LIG     C4      7     -0.180     12.011   ;
     8      CG2O1      1    LIG     C5      8      0.548     12.011   ;
     9      OG2D1      1    LIG     O2      9     -0.553     15.999   ;
    10      NG2S2      1    LIG     N2     10     -0.617     14.007   ;
    11       HGP1      1    LIG     H2     11      0.310      1.008   ;
    12       HGP1      1    LIG     H3     12      0.310      1.008   ;
    13      NG2S1      1    LIG     N3     13     -0.412     14.007   ;
    14      CG2O1      1    LIG     C6     14      0.407     12.011   ;
    15      OG2D1      1    LIG     O3     15     -0.490     15.999   ;
    16       HGP1      1    LIG     H4     16      0.279      1.008   ;
    17     CG2DC1      1    LIG     C7     17      1.053     12.011   ;
    18      NG2P1      1    LIG     N4     18     -0.305     14.007   ;
    19      CG2O1      1    LIG     C8     19      0.678     12.011   ;
    20      OG2D1      1    LIG     O4     20     -0.474     15.999   ;
    21       HGP2      1    LIG     H5     21      0.414      1.008   ;
    22      CG314      1    LIG     C9     22      0.229     12.011   ;
    23      CG321      1    LIG    C10     23     -0.232     12.011   ;
    24      CG321      1    LIG    C11     24     -0.070     12.011   ;
    25      CG2O2      1    LIG    C12     25      0.775     12.011   ;
    26      OG311      1    LIG     O5     26     -0.600     15.999   ;
    27      OG2D1      1    LIG     O6     27     -0.576     15.999   ;
    28      NG3P3      1    LIG     N5     28     -0.286     14.007   ;
    29       HGP2      1    LIG     H6     29      0.293      1.008   ;
    30       HGP2      1    LIG     H7     30      0.293      1.008   ;
    31       HGP2      1    LIG     H8     31      0.293      1.008   ;
    32      CG311      1    LIG    C13     32     -0.237     12.011   ;
    33      CG331      1    LIG    C14     33     -0.324     12.011   ;
    34      CG331      1    LIG    C15     34     -0.324     12.011   ;
    35      CG321      1    LIG    C16     35     -0.101     12.011   ;
    36      CG311      1    LIG    C17     36     -0.109     12.011   ;
    37      CG331      1    LIG    C18     37     -0.268     12.011   ;
    38      CG331      1    LIG    C19     38     -0.268     12.011   ;
    39      CG311      1    LIG    C20     39      0.119     12.011   ;
    40      CG321      1    LIG    C21     40     -0.187     12.011   ;
    41      CG311      1    LIG    C22     41     -0.032     12.011   ;
    42      CG331      1    LIG    C23     42     -0.266     12.011   ;
    43      CG2O1      1    LIG    C24     43      0.502     12.011   ;
    44      OG2D1      1    LIG     O7     44     -0.510     15.999   ;
    45      NG2S1      1    LIG     N6     45     -0.503     14.007   ;
    46       HGP1      1    LIG     H9     46      0.316      1.008   ;
    47      CG311      1    LIG    CA1     47      0.089     12.011   ;
    48      CG331      1    LIG    CB1     48     -0.270     12.011   ;
    49      CG2O1      1    LIG    C25     49      0.698     12.011   ;
    50      OG2D1      1    LIG     O8     50     -0.511     15.999   ;
    51      NG2P1      1    LIG     N7     51     -0.310     14.007   ;
    52       HGP2      1    LIG    H10     52      0.414      1.008   ;
    53     CG2DC1      1    LIG    CA2     53      0.957     12.011   ;
    54      CG321      1    LIG    CB2     54     -0.206     12.011   ;
    55      CG321      1    LIG    CG1     55     -0.287     12.011   ;
    56      CG2O2      1    LIG     CD     56      0.739     12.011   ;
    57      OG2D1      1    LIG    OE1     57     -0.576     15.999   ;
    58      OG311      1    LIG    OE2     58     -0.600     15.999   ;
    59      CG2O1      1    LIG    C26     59      0.395     12.011   ;
    60      OG2D1      1    LIG     O9     60     -0.490     15.999   ;
    61      NG2S1      1    LIG     N8     61     -0.479     14.007   ;
    62       HGP1      1    LIG    H11     62      0.304      1.008   ;
    63      CG311      1    LIG    CA3     63      0.050     12.011   ;
    64      CG321      1    LIG    CB3     64     -0.177     12.011   ;
    65     CG2R61      1    LIG    CG2     65     -0.009     12.011   ;
    66     CG2R61      1    LIG    CD2     66     -0.123     12.011   ;
    67     CG2R61      1    LIG    CE2     67     -0.112     12.011   ;
    68     CG2R61      1    LIG     CZ     68     -0.116     12.011   ;
    69     CG2R61      1    LIG    CE1     69     -0.112     12.011   ;
    70     CG2R61      1    LIG    CD1     70     -0.123     12.011   ;
    71      CG2O2      1    LIG    C27     71      0.768     12.011   ;
    72      OG311      1    LIG    OXT     72     -0.497     15.999   ;
    73      OG2D1      1    LIG    O10     73     -0.564     15.999   ;
    74      OG311      1    LIG    O11     74     -0.648     15.999   ;
    75       HGP1      1    LIG    H12     75      0.421      1.008   ;
    76       HGA1      1    LIG    H13     76      0.090      1.008   ;
    77       HGA1      1    LIG    H14     77      0.090      1.008   ;
    78       HGA2      1    LIG    H15     78      0.090      1.008   ;
    79       HGA2      1    LIG    H16     79      0.090      1.008   ;
    80       HGA1      1    LIG    H17     80      0.090      1.008   ;
    81       HGA2      1    LIG    H18     81      0.090      1.008   ;
    82       HGA2      1    LIG    H19     82      0.090      1.008   ;
    83       HGA2      1    LIG    H20     83      0.090      1.008   ;
    84       HGA2      1    LIG    H21     84      0.090      1.008   ;
    85       HGP1      1    LIG    H22     85      0.429      1.008   ;
    86       HGA1      1    LIG    H23     86      0.090      1.008   ;
    87       HGA3      1    LIG    H24     87      0.090      1.008   ;
    88       HGA3      1    LIG    H25     88      0.090      1.008   ;
    89       HGA3      1    LIG    H26     89      0.090      1.008   ;
    90       HGA3      1    LIG    H27     90      0.090      1.008   ;
    91       HGA3      1    LIG    H28     91      0.090      1.008   ;
    92       HGA3      1    LIG    H29     92      0.090      1.008   ;
    93       HGA2      1    LIG    H30     93      0.090      1.008   ;
    94       HGA2      1    LIG    H31     94      0.090      1.008   ;
    95       HGA1      1    LIG    H32     95      0.090      1.008   ;
    96       HGA3      1    LIG    H33     96      0.090      1.008   ;
    97       HGA3      1    LIG    H34     97      0.090      1.008   ;
    98       HGA3      1    LIG    H35     98      0.090      1.008   ;
    99       HGA3      1    LIG    H36     99      0.090      1.008   ;
   100       HGA3      1    LIG    H37    100      0.090      1.008   ;
   101       HGA3      1    LIG    H38    101      0.090      1.008   ;
   102       HGA1      1    LIG    H39    102      0.090      1.008   ;
   103       HGA2      1    LIG    H40    103      0.090      1.008   ;
   104       HGA2      1    LIG    H41    104      0.090      1.008   ;
   105       HGA1      1    LIG    H42    105      0.090      1.008   ;
   106       HGA3      1    LIG    H43    106      0.090      1.008   ;
   107       HGA3      1    LIG    H44    107      0.090      1.008   ;
   108       HGA3      1    LIG    H45    108      0.090      1.008   ;
   109       HGA1      1    LIG    HA1    109      0.090      1.008   ;
   110       HGA3      1    LIG    HB1    110      0.090      1.008   ;
   111       HGA3      1    LIG    HB2    111      0.090      1.008   ;
   112       HGA3      1    LIG    HB3    112      0.090      1.008   ;
   113       HGA2      1    LIG    HB4    113      0.090      1.008   ;
   114       HGA2      1    LIG    HB6    114      0.090      1.008   ;
   115       HGA2      1    LIG    HG1    115      0.090      1.008   ;
   116       HGA2      1    LIG    HG2    116      0.090      1.008   ;
   117       HGP1      1    LIG    HE2    117      0.429      1.008   ;
   118       HGA1      1    LIG    HA2    118      0.090      1.008   ;
   119       HGA2      1    LIG    HB5    119      0.090      1.008   ;
   120       HGA2      1    LIG    HB7    120      0.090      1.008   ;
   121      HGR61      1    LIG    HD2    121      0.116      1.008   ;
   122      HGR61      1    LIG    HE3    122      0.116      1.008   ;
   123      HGR61      1    LIG     HZ    123      0.116      1.008   ;
   124      HGR61      1    LIG    HE1    124      0.116      1.008   ;
   125      HGR61      1    LIG    HD1    125      0.116      1.008   ;
   126       HGP1      1    LIG    HXT    126      0.314      1.008   ;

[ bonds ]
;	ai	  aj funct			  c0			c1			  c2			c3
    1    35	 1 ;       CG311      CG321
    1    39	 1 ;       CG311      CG311
    1     2	 1 ;       CG311      NG2S1
    1    76	 1 ;       CG311       HGA1
    2     3	 1 ;       NG2S1      CG2O1
    2     5	 1 ;       NG2S1       HGP1
    3     4	 1 ;       CG2O1      OG2D1
    3     6	 1 ;       CG2O1      CG311
    6     7	 1 ;       CG311      CG321
    6    13	 1 ;       CG311      NG2S1
    6    77	 1 ;       CG311       HGA1
    7     8	 1 ;       CG321      CG2O1
    7    78	 1 ;       CG321       HGA2
    7    79	 1 ;       CG321       HGA2
    8    10	 1 ;       CG2O1      NG2S2
    8     9	 1 ;       CG2O1      OG2D1
   10    12	 1 ;       NG2S2       HGP1
   10    11	 1 ;       NG2S2       HGP1
   13    16	 1 ;       NG2S1       HGP1
   13    14	 1 ;       NG2S1      CG2O1
   14    15	 1 ;       CG2O1      OG2D1
   14    17	 1 ;       CG2O1     CG2DC1
   17    32	 1 ;      CG2DC1      CG311
   17    18	 1 ;      CG2DC1      NG2P1
   18    21	 1 ;       NG2P1       HGP2
   18    19	 1 ;       NG2P1      CG2O1
   19    20	 1 ;       CG2O1      OG2D1
   19    22	 1 ;       CG2O1      CG314
   22    23	 1 ;       CG314      CG321
   22    28	 1 ;       CG314      NG3P3
   22    80	 1 ;       CG314       HGA1
   23    24	 1 ;       CG321      CG321
   23    81	 1 ;       CG321       HGA2
   23    82	 1 ;       CG321       HGA2
   24    25	 1 ;       CG321      CG2O2
   24    83	 1 ;       CG321       HGA2
   24    84	 1 ;       CG321       HGA2
   25    27	 1 ;       CG2O2      OG2D1
   25    26	 1 ;       CG2O2      OG311
   26    85	 1 ;       OG311       HGP1
   28    29	 1 ;       NG3P3       HGP2
   28    31	 1 ;       NG3P3       HGP2
   28    30	 1 ;       NG3P3       HGP2
   32    34	 1 ;       CG311      CG331
   32    33	 1 ;       CG311      CG331
   32    86	 1 ;       CG311       HGA1
   33    87	 1 ;       CG331       HGA3
   33    88	 1 ;       CG331       HGA3
   33    89	 1 ;       CG331       HGA3
   34    90	 1 ;       CG331       HGA3
   34    91	 1 ;       CG331       HGA3
   34    92	 1 ;       CG331       HGA3
   35    36	 1 ;       CG321      CG311
   35    93	 1 ;       CG321       HGA2
   35    94	 1 ;       CG321       HGA2
   36    37	 1 ;       CG311      CG331
   36    38	 1 ;       CG311      CG331
   36    95	 1 ;       CG311       HGA1
   37    96	 1 ;       CG331       HGA3
   37    97	 1 ;       CG331       HGA3
   37    98	 1 ;       CG331       HGA3
   38    99	 1 ;       CG331       HGA3
   38   100	 1 ;       CG331       HGA3
   38   101	 1 ;       CG331       HGA3
   39    40	 1 ;       CG311      CG321
   39    74	 1 ;       CG311      OG311
   39   102	 1 ;       CG311       HGA1
   40    41	 1 ;       CG321      CG311
   40   103	 1 ;       CG321       HGA2
   40   104	 1 ;       CG321       HGA2
   41    42	 1 ;       CG311      CG331
   41    43	 1 ;       CG311      CG2O1
   41   105	 1 ;       CG311       HGA1
   42   106	 1 ;       CG331       HGA3
   42   107	 1 ;       CG331       HGA3
   42   108	 1 ;       CG331       HGA3
   43    44	 1 ;       CG2O1      OG2D1
   43    45	 1 ;       CG2O1      NG2S1
   45    47	 1 ;       NG2S1      CG311
   45    46	 1 ;       NG2S1       HGP1
   47    48	 1 ;       CG311      CG331
   47    49	 1 ;       CG311      CG2O1
   47   109	 1 ;       CG311       HGA1
   48   110	 1 ;       CG331       HGA3
   48   111	 1 ;       CG331       HGA3
   48   112	 1 ;       CG331       HGA3
   49    50	 1 ;       CG2O1      OG2D1
   49    51	 1 ;       CG2O1      NG2P1
   51    52	 1 ;       NG2P1       HGP2
   51    53	 1 ;       NG2P1     CG2DC1
   53    59	 1 ;      CG2DC1      CG2O1
   53    54	 1 ;      CG2DC1      CG321
   54    55	 1 ;       CG321      CG321
   54   113	 1 ;       CG321       HGA2
   54   114	 1 ;       CG321       HGA2
   55    56	 1 ;       CG321      CG2O2
   55   115	 1 ;       CG321       HGA2
   55   116	 1 ;       CG321       HGA2
   56    57	 1 ;       CG2O2      OG2D1
   56    58	 1 ;       CG2O2      OG311
   58   117	 1 ;       OG311       HGP1
   59    61	 1 ;       CG2O1      NG2S1
   59    60	 1 ;       CG2O1      OG2D1
   61    62	 1 ;       NG2S1       HGP1
   61    63	 1 ;       NG2S1      CG311
   63    64	 1 ;       CG311      CG321
   63    71	 1 ;       CG311      CG2O2
   63   118	 1 ;       CG311       HGA1
   64    65	 1 ;       CG321     CG2R61
   64   119	 1 ;       CG321       HGA2
   64   120	 1 ;       CG321       HGA2
   65    70	 1 ;      CG2R61     CG2R61
   65    66	 1 ;      CG2R61     CG2R61
   66    67	 1 ;      CG2R61     CG2R61
   66   121	 1 ;      CG2R61      HGR61
   67    68	 1 ;      CG2R61     CG2R61
   67   122	 1 ;      CG2R61      HGR61
   68    69	 1 ;      CG2R61     CG2R61
   68   123	 1 ;      CG2R61      HGR61
   69    70	 1 ;      CG2R61     CG2R61
   69   124	 1 ;      CG2R61      HGR61
   70   125	 1 ;      CG2R61      HGR61
   71    73	 1 ;       CG2O2      OG2D1
   71    72	 1 ;       CG2O2      OG311
   72   126	 1 ;       OG311       HGP1
   74    75	 1 ;       OG311       HGP1

[ pairs ]
;	ai	  aj funct			  c0			c1			  c2			c3
    1     4	 1
    1     6	 1
    1    37	 1
    1    38	 1
    1    95	 1
    1    41	 1
    1   103	 1
    1   104	 1
    1    75	 1
    2    36	 1
    2    93	 1
    2    94	 1
    2    40	 1
    2    74	 1
    2   102	 1
    2     7	 1
    2    13	 1
    2    77	 1
    3    35	 1
    3    39	 1
    3    76	 1
    3     8	 1
    3    78	 1
    3    79	 1
    3    16	 1
    3    14	 1
    4     5	 1
    4     7	 1
    4    13	 1
    4    77	 1
    5    35	 1
    5    39	 1
    5    76	 1
    5     6	 1
    6    10	 1
    6     9	 1
    6    15	 1
    6    17	 1
    7    16	 1
    7    14	 1
    7    12	 1
    7    11	 1
    8    13	 1
    8    77	 1
    9    78	 1
    9    79	 1
    9    12	 1
    9    11	 1
   10    78	 1
   10    79	 1
   13    78	 1
   13    79	 1
   13    32	 1
   13    18	 1
   14    77	 1
   14    34	 1
   14    33	 1
   14    86	 1
   14    21	 1
   14    19	 1
   15    16	 1
   15    32	 1
   15    18	 1
   16    77	 1
   16    17	 1
   17    20	 1
   17    22	 1
   17    90	 1
   17    91	 1
   17    92	 1
   17    87	 1
   17    88	 1
   17    89	 1
   18    34	 1
   18    33	 1
   18    86	 1
   18    23	 1
   18    28	 1
   18    80	 1
   19    32	 1
   19    24	 1
   19    81	 1
   19    82	 1
   19    29	 1
   19    31	 1
   19    30	 1
   20    21	 1
   20    23	 1
   20    28	 1
   20    80	 1
   21    32	 1
   21    22	 1
   22    25	 1
   22    83	 1
   22    84	 1
   23    29	 1
   23    31	 1
   23    30	 1
   23    27	 1
   23    26	 1
   24    28	 1
   24    80	 1
   24    85	 1
   25    81	 1
   25    82	 1
   26    83	 1
   26    84	 1
   27    83	 1
   27    84	 1
   27    85	 1
   28    81	 1
   28    82	 1
   29    80	 1
   30    80	 1
   31    80	 1
   33    90	 1
   33    91	 1
   33    92	 1
   34    87	 1
   34    88	 1
   34    89	 1
   35    40	 1
   35    74	 1
   35   102	 1
   35    96	 1
   35    97	 1
   35    98	 1
   35    99	 1
   35   100	 1
   35   101	 1
   36    39	 1
   36    76	 1
   37    93	 1
   37    94	 1
   37    99	 1
   37   100	 1
   37   101	 1
   38    93	 1
   38    94	 1
   38    96	 1
   38    97	 1
   38    98	 1
   39    93	 1
   39    94	 1
   39    42	 1
   39    43	 1
   39   105	 1
   40    76	 1
   40    75	 1
   40   106	 1
   40   107	 1
   40   108	 1
   40    44	 1
   40    45	 1
   41    74	 1
   41   102	 1
   41    47	 1
   41    46	 1
   42   103	 1
   42   104	 1
   42    44	 1
   42    45	 1
   43   103	 1
   43   104	 1
   43   106	 1
   43   107	 1
   43   108	 1
   43    48	 1
   43    49	 1
   43   109	 1
   44   105	 1
   44    47	 1
   44    46	 1
   45   105	 1
   45   110	 1
   45   111	 1
   45   112	 1
   45    50	 1
   45    51	 1
   46    48	 1
   46    49	 1
   46   109	 1
   47    52	 1
   47    53	 1
   48    50	 1
   48    51	 1
   49   110	 1
   49   111	 1
   49   112	 1
   49    59	 1
   49    54	 1
   50   109	 1
   50    52	 1
   50    53	 1
   51   109	 1
   51    61	 1
   51    60	 1
   51    55	 1
   51   113	 1
   51   114	 1
   52    59	 1
   52    54	 1
   53    56	 1
   53   115	 1
   53   116	 1
   53    62	 1
   53    63	 1
   54    61	 1
   54    60	 1
   54    57	 1
   54    58	 1
   55    59	 1
   55   117	 1
   56   113	 1
   56   114	 1
   57   115	 1
   57   116	 1
   57   117	 1
   58   115	 1
   58   116	 1
   59   113	 1
   59   114	 1
   59    64	 1
   59    71	 1
   59   118	 1
   60    62	 1
   60    63	 1
   61    65	 1
   61   119	 1
   61   120	 1
   61    73	 1
   61    72	 1
   62    64	 1
   62    71	 1
   62   118	 1
   63    70	 1
   63    66	 1
   63   126	 1
   64    73	 1
   64    72	 1
   64    69	 1
   64   125	 1
   64    67	 1
   64   121	 1
   65    71	 1
   65   118	 1
   65    68	 1
   65   122	 1
   65   124	 1
   66   119	 1
   66   120	 1
   66    69	 1
   66   125	 1
   66   123	 1
   67    70	 1
   67   124	 1
   68   121	 1
   68   125	 1
   69   122	 1
   70   119	 1
   70   120	 1
   70   121	 1
   70   123	 1
   71   119	 1
   71   120	 1
   72   118	 1
   73   118	 1
   73   126	 1
   74    76	 1
   74   103	 1
   74   104	 1
   75   102	 1
   76    93	 1
   76    94	 1
   76   102	 1
   77    78	 1
   77    79	 1
   80    81	 1
   80    82	 1
   81    83	 1
   81    84	 1
   82    83	 1
   82    84	 1
   86    90	 1
   86    91	 1
   86    92	 1
   86    87	 1
   86    88	 1
   86    89	 1
   93    95	 1
   94    95	 1
   95    96	 1
   95    97	 1
   95    98	 1
   95    99	 1
   95   100	 1
   95   101	 1
  102   103	 1
  102   104	 1
  103   105	 1
  104   105	 1
  105   106	 1
  105   107	 1
  105   108	 1
  109   110	 1
  109   111	 1
  109   112	 1
  113   115	 1
  113   116	 1
  114   115	 1
  114   116	 1
  118   119	 1
  118   120	 1
  121   122	 1
  122   123	 1
  123   124	 1
  124   125	 1

[ angles ]
;	ai	  aj	ak funct			c0			  c1			c2			  c3
   35     1    39	5 ;      CG321      CG311      CG311
   35     1     2	5 ;      CG321      CG311      NG2S1
   35     1    76	5 ;      CG321      CG311       HGA1
   39     1     2	5 ;      CG311      CG311      NG2S1
   39     1    76	5 ;      CG311      CG311       HGA1
    2     1    76	5 ;      NG2S1      CG311       HGA1
    1     2     3	5 ;      CG311      NG2S1      CG2O1
    1     2     5	5 ;      CG311      NG2S1       HGP1
    3     2     5	5 ;      CG2O1      NG2S1       HGP1
    4     3     2	5 ;      OG2D1      CG2O1      NG2S1
    4     3     6	5 ;      OG2D1      CG2O1      CG311
    2     3     6	5 ;      NG2S1      CG2O1      CG311
    3     6     7	5 ;      CG2O1      CG311      CG321
    3     6    13	5 ;      CG2O1      CG311      NG2S1
    3     6    77	5 ;      CG2O1      CG311       HGA1
    7     6    13	5 ;      CG321      CG311      NG2S1
    7     6    77	5 ;      CG321      CG311       HGA1
   13     6    77	5 ;      NG2S1      CG311       HGA1
    8     7     6	5 ;      CG2O1      CG321      CG311
    8     7    78	5 ;      CG2O1      CG321       HGA2
    8     7    79	5 ;      CG2O1      CG321       HGA2
    6     7    78	5 ;      CG311      CG321       HGA2
    6     7    79	5 ;      CG311      CG321       HGA2
   78     7    79	5 ;       HGA2      CG321       HGA2
   10     8     9	5 ;      NG2S2      CG2O1      OG2D1
   10     8     7	5 ;      NG2S2      CG2O1      CG321
    9     8     7	5 ;      OG2D1      CG2O1      CG321
   12    10     8	5 ;       HGP1      NG2S2      CG2O1
   12    10    11	5 ;       HGP1      NG2S2       HGP1
    8    10    11	5 ;      CG2O1      NG2S2       HGP1
    6    13    16	5 ;      CG311      NG2S1       HGP1
    6    13    14	5 ;      CG311      NG2S1      CG2O1
   16    13    14	5 ;       HGP1      NG2S1      CG2O1
   13    14    15	5 ;      NG2S1      CG2O1      OG2D1
   13    14    17	5 ;      NG2S1      CG2O1     CG2DC1
   15    14    17	5 ;      OG2D1      CG2O1     CG2DC1
   14    17    32	5 ;      CG2O1     CG2DC1      CG311
   14    17    18	5 ;      CG2O1     CG2DC1      NG2P1
   32    17    18	5 ;      CG311     CG2DC1      NG2P1
   17    18    21	5 ;     CG2DC1      NG2P1       HGP2
   17    18    19	5 ;     CG2DC1      NG2P1      CG2O1
   21    18    19	5 ;       HGP2      NG2P1      CG2O1
   18    19    20	5 ;      NG2P1      CG2O1      OG2D1
   18    19    22	5 ;      NG2P1      CG2O1      CG314
   20    19    22	5 ;      OG2D1      CG2O1      CG314
   19    22    23	5 ;      CG2O1      CG314      CG321
   19    22    28	5 ;      CG2O1      CG314      NG3P3
   19    22    80	5 ;      CG2O1      CG314       HGA1
   23    22    28	5 ;      CG321      CG314      NG3P3
   23    22    80	5 ;      CG321      CG314       HGA1
   28    22    80	5 ;      NG3P3      CG314       HGA1
   22    23    24	5 ;      CG314      CG321      CG321
   22    23    81	5 ;      CG314      CG321       HGA2
   22    23    82	5 ;      CG314      CG321       HGA2
   24    23    81	5 ;      CG321      CG321       HGA2
   24    23    82	5 ;      CG321      CG321       HGA2
   81    23    82	5 ;       HGA2      CG321       HGA2
   23    24    25	5 ;      CG321      CG321      CG2O2
   23    24    83	5 ;      CG321      CG321       HGA2
   23    24    84	5 ;      CG321      CG321       HGA2
   25    24    83	5 ;      CG2O2      CG321       HGA2
   25    24    84	5 ;      CG2O2      CG321       HGA2
   83    24    84	5 ;       HGA2      CG321       HGA2
   24    25    27	5 ;      CG321      CG2O2      OG2D1
   24    25    26	5 ;      CG321      CG2O2      OG311
   27    25    26	5 ;      OG2D1      CG2O2      OG311
   25    26    85	5 ;      CG2O2      OG311       HGP1
   29    28    22	5 ;       HGP2      NG3P3      CG314
   29    28    31	5 ;       HGP2      NG3P3       HGP2
   29    28    30	5 ;       HGP2      NG3P3       HGP2
   22    28    31	5 ;      CG314      NG3P3       HGP2
   22    28    30	5 ;      CG314      NG3P3       HGP2
   31    28    30	5 ;       HGP2      NG3P3       HGP2
   34    32    17	5 ;      CG331      CG311     CG2DC1
   34    32    33	5 ;      CG331      CG311      CG331
   34    32    86	5 ;      CG331      CG311       HGA1
   17    32    33	5 ;     CG2DC1      CG311      CG331
   17    32    86	5 ;     CG2DC1      CG311       HGA1
   33    32    86	5 ;      CG331      CG311       HGA1
   32    33    87	5 ;      CG311      CG331       HGA3
   32    33    88	5 ;      CG311      CG331       HGA3
   32    33    89	5 ;      CG311      CG331       HGA3
   87    33    88	5 ;       HGA3      CG331       HGA3
   87    33    89	5 ;       HGA3      CG331       HGA3
   88    33    89	5 ;       HGA3      CG331       HGA3
   32    34    90	5 ;      CG311      CG331       HGA3
   32    34    91	5 ;      CG311      CG331       HGA3
   32    34    92	5 ;      CG311      CG331       HGA3
   90    34    91	5 ;       HGA3      CG331       HGA3
   90    34    92	5 ;       HGA3      CG331       HGA3
   91    34    92	5 ;       HGA3      CG331       HGA3
   36    35     1	5 ;      CG311      CG321      CG311
   36    35    93	5 ;      CG311      CG321       HGA2
   36    35    94	5 ;      CG311      CG321       HGA2
    1    35    93	5 ;      CG311      CG321       HGA2
    1    35    94	5 ;      CG311      CG321       HGA2
   93    35    94	5 ;       HGA2      CG321       HGA2
   37    36    38	5 ;      CG331      CG311      CG331
   37    36    35	5 ;      CG331      CG311      CG321
   37    36    95	5 ;      CG331      CG311       HGA1
   38    36    35	5 ;      CG331      CG311      CG321
   38    36    95	5 ;      CG331      CG311       HGA1
   35    36    95	5 ;      CG321      CG311       HGA1
   36    37    96	5 ;      CG311      CG331       HGA3
   36    37    97	5 ;      CG311      CG331       HGA3
   36    37    98	5 ;      CG311      CG331       HGA3
   96    37    97	5 ;       HGA3      CG331       HGA3
   96    37    98	5 ;       HGA3      CG331       HGA3
   97    37    98	5 ;       HGA3      CG331       HGA3
   36    38    99	5 ;      CG311      CG331       HGA3
   36    38   100	5 ;      CG311      CG331       HGA3
   36    38   101	5 ;      CG311      CG331       HGA3
   99    38   100	5 ;       HGA3      CG331       HGA3
   99    38   101	5 ;       HGA3      CG331       HGA3
  100    38   101	5 ;       HGA3      CG331       HGA3
   40    39     1	5 ;      CG321      CG311      CG311
   40    39    74	5 ;      CG321      CG311      OG311
   40    39   102	5 ;      CG321      CG311       HGA1
    1    39    74	5 ;      CG311      CG311      OG311
    1    39   102	5 ;      CG311      CG311       HGA1
   74    39   102	5 ;      OG311      CG311       HGA1
   41    40    39	5 ;      CG311      CG321      CG311
   41    40   103	5 ;      CG311      CG321       HGA2
   41    40   104	5 ;      CG311      CG321       HGA2
   39    40   103	5 ;      CG311      CG321       HGA2
   39    40   104	5 ;      CG311      CG321       HGA2
  103    40   104	5 ;       HGA2      CG321       HGA2
   42    41    43	5 ;      CG331      CG311      CG2O1
   42    41    40	5 ;      CG331      CG311      CG321
   42    41   105	5 ;      CG331      CG311       HGA1
   43    41    40	5 ;      CG2O1      CG311      CG321
   43    41   105	5 ;      CG2O1      CG311       HGA1
   40    41   105	5 ;      CG321      CG311       HGA1
   41    42   106	5 ;      CG311      CG331       HGA3
   41    42   107	5 ;      CG311      CG331       HGA3
   41    42   108	5 ;      CG311      CG331       HGA3
  106    42   107	5 ;       HGA3      CG331       HGA3
  106    42   108	5 ;       HGA3      CG331       HGA3
  107    42   108	5 ;       HGA3      CG331       HGA3
   44    43    41	5 ;      OG2D1      CG2O1      CG311
   44    43    45	5 ;      OG2D1      CG2O1      NG2S1
   41    43    45	5 ;      CG311      CG2O1      NG2S1
   43    45    47	5 ;      CG2O1      NG2S1      CG311
   43    45    46	5 ;      CG2O1      NG2S1       HGP1
   47    45    46	5 ;      CG311      NG2S1       HGP1
   48    47    45	5 ;      CG331      CG311      NG2S1
   48    47    49	5 ;      CG331      CG311      CG2O1
   48    47   109	5 ;      CG331      CG311       HGA1
   45    47    49	5 ;      NG2S1      CG311      CG2O1
   45    47   109	5 ;      NG2S1      CG311       HGA1
   49    47   109	5 ;      CG2O1      CG311       HGA1
   47    48   110	5 ;      CG311      CG331       HGA3
   47    48   111	5 ;      CG311      CG331       HGA3
   47    48   112	5 ;      CG311      CG331       HGA3
  110    48   111	5 ;       HGA3      CG331       HGA3
  110    48   112	5 ;       HGA3      CG331       HGA3
  111    48   112	5 ;       HGA3      CG331       HGA3
   47    49    50	5 ;      CG311      CG2O1      OG2D1
   47    49    51	5 ;      CG311      CG2O1      NG2P1
   50    49    51	5 ;      OG2D1      CG2O1      NG2P1
   49    51    52	5 ;      CG2O1      NG2P1       HGP2
   49    51    53	5 ;      CG2O1      NG2P1     CG2DC1
   52    51    53	5 ;       HGP2      NG2P1     CG2DC1
   51    53    59	5 ;      NG2P1     CG2DC1      CG2O1
   51    53    54	5 ;      NG2P1     CG2DC1      CG321
   59    53    54	5 ;      CG2O1     CG2DC1      CG321
   53    54    55	5 ;     CG2DC1      CG321      CG321
   53    54   113	5 ;     CG2DC1      CG321       HGA2
   53    54   114	5 ;     CG2DC1      CG321       HGA2
   55    54   113	5 ;      CG321      CG321       HGA2
   55    54   114	5 ;      CG321      CG321       HGA2
  113    54   114	5 ;       HGA2      CG321       HGA2
   54    55    56	5 ;      CG321      CG321      CG2O2
   54    55   115	5 ;      CG321      CG321       HGA2
   54    55   116	5 ;      CG321      CG321       HGA2
   56    55   115	5 ;      CG2O2      CG321       HGA2
   56    55   116	5 ;      CG2O2      CG321       HGA2
  115    55   116	5 ;       HGA2      CG321       HGA2
   57    56    55	5 ;      OG2D1      CG2O2      CG321
   57    56    58	5 ;      OG2D1      CG2O2      OG311
   55    56    58	5 ;      CG321      CG2O2      OG311
   56    58   117	5 ;      CG2O2      OG311       HGP1
   61    59    53	5 ;      NG2S1      CG2O1     CG2DC1
   61    59    60	5 ;      NG2S1      CG2O1      OG2D1
   53    59    60	5 ;     CG2DC1      CG2O1      OG2D1
   62    61    63	5 ;       HGP1      NG2S1      CG311
   62    61    59	5 ;       HGP1      NG2S1      CG2O1
   63    61    59	5 ;      CG311      NG2S1      CG2O1
   64    63    61	5 ;      CG321      CG311      NG2S1
   64    63    71	5 ;      CG321      CG311      CG2O2
   64    63   118	5 ;      CG321      CG311       HGA1
   61    63    71	5 ;      NG2S1      CG311      CG2O2
   61    63   118	5 ;      NG2S1      CG311       HGA1
   71    63   118	5 ;      CG2O2      CG311       HGA1
   65    64    63	5 ;     CG2R61      CG321      CG311
   65    64   119	5 ;     CG2R61      CG321       HGA2
   65    64   120	5 ;     CG2R61      CG321       HGA2
   63    64   119	5 ;      CG311      CG321       HGA2
   63    64   120	5 ;      CG311      CG321       HGA2
  119    64   120	5 ;       HGA2      CG321       HGA2
   64    65    70	5 ;      CG321     CG2R61     CG2R61
   64    65    66	5 ;      CG321     CG2R61     CG2R61
   70    65    66	5 ;     CG2R61     CG2R61     CG2R61
   65    66    67	5 ;     CG2R61     CG2R61     CG2R61
   65    66   121	5 ;     CG2R61     CG2R61      HGR61
   67    66   121	5 ;     CG2R61     CG2R61      HGR61
   66    67    68	5 ;     CG2R61     CG2R61     CG2R61
   66    67   122	5 ;     CG2R61     CG2R61      HGR61
   68    67   122	5 ;     CG2R61     CG2R61      HGR61
   69    68    67	5 ;     CG2R61     CG2R61     CG2R61
   69    68   123	5 ;     CG2R61     CG2R61      HGR61
   67    68   123	5 ;     CG2R61     CG2R61      HGR61
   70    69    68	5 ;     CG2R61     CG2R61     CG2R61
   70    69   124	5 ;     CG2R61     CG2R61      HGR61
   68    69   124	5 ;     CG2R61     CG2R61      HGR61
   65    70    69	5 ;     CG2R61     CG2R61     CG2R61
   65    70   125	5 ;     CG2R61     CG2R61      HGR61
   69    70   125	5 ;     CG2R61     CG2R61      HGR61
   73    71    63	5 ;      OG2D1      CG2O2      CG311
   73    71    72	5 ;      OG2D1      CG2O2      OG311
   63    71    72	5 ;      CG311      CG2O2      OG311
   71    72   126	5 ;      CG2O2      OG311       HGP1
   39    74    75	5 ;      CG311      OG311       HGP1

[ dihedrals ]
;	ai	  aj	ak	  al funct			  c0			c1			  c2			c3			  c4			c5
   39     1    35    36	 9 ;      CG311      CG311      CG321      CG311
   39     1    35    93	 9 ;      CG311      CG311      CG321       HGA2
   39     1    35    94	 9 ;      CG311      CG311      CG321       HGA2
    2     1    35    36	 9 ;      NG2S1      CG311      CG321      CG311
    2     1    35    93	 9 ;      NG2S1      CG311      CG321       HGA2
    2     1    35    94	 9 ;      NG2S1      CG311      CG321       HGA2
   76     1    35    36	 9 ;       HGA1      CG311      CG321      CG311
   76     1    35    93	 9 ;       HGA1      CG311      CG321       HGA2
   76     1    35    94	 9 ;       HGA1      CG311      CG321       HGA2
   35     1    39    40	 9 ;      CG321      CG311      CG311      CG321
   35     1    39    74	 9 ;      CG321      CG311      CG311      OG311
   35     1    39   102	 9 ;      CG321      CG311      CG311       HGA1
    2     1    39    40	 9 ;      NG2S1      CG311      CG311      CG321
    2     1    39    74	 9 ;      NG2S1      CG311      CG311      OG311
    2     1    39   102	 9 ;      NG2S1      CG311      CG311       HGA1
   76     1    39    40	 9 ;       HGA1      CG311      CG311      CG321
   76     1    39    74	 9 ;       HGA1      CG311      CG311      OG311
   76     1    39   102	 9 ;       HGA1      CG311      CG311       HGA1
   35     1     2     3	 9 ;      CG321      CG311      NG2S1      CG2O1
   35     1     2     5	 9 ;      CG321      CG311      NG2S1       HGP1
   39     1     2     3	 9 ;      CG311      CG311      NG2S1      CG2O1
   39     1     2     5	 9 ;      CG311      CG311      NG2S1       HGP1
   76     1     2     3	 9 ;       HGA1      CG311      NG2S1      CG2O1
   76     1     2     5	 9 ;       HGA1      CG311      NG2S1       HGP1
    1     2     3     4	 9 ;      CG311      NG2S1      CG2O1      OG2D1
    1     2     3     6	 9 ;      CG311      NG2S1      CG2O1      CG311
    5     2     3     4	 9 ;       HGP1      NG2S1      CG2O1      OG2D1
    5     2     3     6	 9 ;       HGP1      NG2S1      CG2O1      CG311
    4     3     6     7	 9 ;      OG2D1      CG2O1      CG311      CG321
    4     3     6    13	 9 ;      OG2D1      CG2O1      CG311      NG2S1
    4     3     6    77	 9 ;      OG2D1      CG2O1      CG311       HGA1
    2     3     6     7	 9 ;      NG2S1      CG2O1      CG311      CG321
    2     3     6    13	 9 ;      NG2S1      CG2O1      CG311      NG2S1
    2     3     6    77	 9 ;      NG2S1      CG2O1      CG311       HGA1
    3     6     7     8	 9 ;      CG2O1      CG311      CG321      CG2O1
    3     6     7    78	 9 ;      CG2O1      CG311      CG321       HGA2
    3     6     7    79	 9 ;      CG2O1      CG311      CG321       HGA2
   13     6     7     8	 9 ;      NG2S1      CG311      CG321      CG2O1
   13     6     7    78	 9 ;      NG2S1      CG311      CG321       HGA2
   13     6     7    79	 9 ;      NG2S1      CG311      CG321       HGA2
   77     6     7     8	 9 ;       HGA1      CG311      CG321      CG2O1
   77     6     7    78	 9 ;       HGA1      CG311      CG321       HGA2
   77     6     7    79	 9 ;       HGA1      CG311      CG321       HGA2
    3     6    13    16	 9 ;      CG2O1      CG311      NG2S1       HGP1
    3     6    13    14	 9 ;      CG2O1      CG311      NG2S1      CG2O1
    7     6    13    16	 9 ;      CG321      CG311      NG2S1       HGP1
    7     6    13    14	 9 ;      CG321      CG311      NG2S1      CG2O1
   77     6    13    16	 9 ;       HGA1      CG311      NG2S1       HGP1
   77     6    13    14	 9 ;       HGA1      CG311      NG2S1      CG2O1
    6     7     8    10	 9 ;      CG311      CG321      CG2O1      NG2S2
    6     7     8     9	 9 ;      CG311      CG321      CG2O1      OG2D1
   78     7     8    10	 9 ;       HGA2      CG321      CG2O1      NG2S2
   78     7     8     9	 9 ;       HGA2      CG321      CG2O1      OG2D1
   79     7     8    10	 9 ;       HGA2      CG321      CG2O1      NG2S2
   79     7     8     9	 9 ;       HGA2      CG321      CG2O1      OG2D1
    9     8    10    12	 9 ;      OG2D1      CG2O1      NG2S2       HGP1
    9     8    10    11	 9 ;      OG2D1      CG2O1      NG2S2       HGP1
    7     8    10    12	 9 ;      CG321      CG2O1      NG2S2       HGP1
    7     8    10    11	 9 ;      CG321      CG2O1      NG2S2       HGP1
    6    13    14    15	 9 ;      CG311      NG2S1      CG2O1      OG2D1
    6    13    14    17	 9 ;      CG311      NG2S1      CG2O1     CG2DC1
   16    13    14    15	 9 ;       HGP1      NG2S1      CG2O1      OG2D1
   16    13    14    17	 9 ;       HGP1      NG2S1      CG2O1     CG2DC1
   13    14    17    32	 9 ;      NG2S1      CG2O1     CG2DC1      CG311
   13    14    17    18	 9 ;      NG2S1      CG2O1     CG2DC1      NG2P1
   15    14    17    32	 9 ;      OG2D1      CG2O1     CG2DC1      CG311
   15    14    17    18	 9 ;      OG2D1      CG2O1     CG2DC1      NG2P1
   14    17    32    34	 9 ;      CG2O1     CG2DC1      CG311      CG331
   14    17    32    33	 9 ;      CG2O1     CG2DC1      CG311      CG331
   14    17    32    86	 9 ;      CG2O1     CG2DC1      CG311       HGA1
   18    17    32    34	 9 ;      NG2P1     CG2DC1      CG311      CG331
   18    17    32    33	 9 ;      NG2P1     CG2DC1      CG311      CG331
   18    17    32    86	 9 ;      NG2P1     CG2DC1      CG311       HGA1
   14    17    18    21	 9 ;      CG2O1     CG2DC1      NG2P1       HGP2
   14    17    18    19	 9 ;      CG2O1     CG2DC1      NG2P1      CG2O1
   32    17    18    21	 9 ;      CG311     CG2DC1      NG2P1       HGP2
   32    17    18    19	 9 ;      CG311     CG2DC1      NG2P1      CG2O1
   17    18    19    20	 9 ;     CG2DC1      NG2P1      CG2O1      OG2D1
   17    18    19    22	 9 ;     CG2DC1      NG2P1      CG2O1      CG314
   21    18    19    20	 9 ;       HGP2      NG2P1      CG2O1      OG2D1
   21    18    19    22	 9 ;       HGP2      NG2P1      CG2O1      CG314
   18    19    22    23	 9 ;      NG2P1      CG2O1      CG314      CG321
   18    19    22    28	 9 ;      NG2P1      CG2O1      CG314      NG3P3
   18    19    22    80	 9 ;      NG2P1      CG2O1      CG314       HGA1
   20    19    22    23	 9 ;      OG2D1      CG2O1      CG314      CG321
   20    19    22    28	 9 ;      OG2D1      CG2O1      CG314      NG3P3
   20    19    22    80	 9 ;      OG2D1      CG2O1      CG314       HGA1
   19    22    23    24	 9 ;      CG2O1      CG314      CG321      CG321
   19    22    23    81	 9 ;      CG2O1      CG314      CG321       HGA2
   19    22    23    82	 9 ;      CG2O1      CG314      CG321       HGA2
   28    22    23    24	 9 ;      NG3P3      CG314      CG321      CG321
   28    22    23    81	 9 ;      NG3P3      CG314      CG321       HGA2
   28    22    23    82	 9 ;      NG3P3      CG314      CG321       HGA2
   80    22    23    24	 9 ;       HGA1      CG314      CG321      CG321
   80    22    23    81	 9 ;       HGA1      CG314      CG321       HGA2
   80    22    23    82	 9 ;       HGA1      CG314      CG321       HGA2
   19    22    28    29	 9 ;      CG2O1      CG314      NG3P3       HGP2
   19    22    28    31	 9 ;      CG2O1      CG314      NG3P3       HGP2
   19    22    28    30	 9 ;      CG2O1      CG314      NG3P3       HGP2
   23    22    28    29	 9 ;      CG321      CG314      NG3P3       HGP2
   23    22    28    31	 9 ;      CG321      CG314      NG3P3       HGP2
   23    22    28    30	 9 ;      CG321      CG314      NG3P3       HGP2
   80    22    28    29	 9 ;       HGA1      CG314      NG3P3       HGP2
   80    22    28    31	 9 ;       HGA1      CG314      NG3P3       HGP2
   80    22    28    30	 9 ;       HGA1      CG314      NG3P3       HGP2
   22    23    24    25	 9 ;      CG314      CG321      CG321      CG2O2
   22    23    24    83	 9 ;      CG314      CG321      CG321       HGA2
   22    23    24    84	 9 ;      CG314      CG321      CG321       HGA2
   81    23    24    25	 9 ;       HGA2      CG321      CG321      CG2O2
   81    23    24    83	 9 ;       HGA2      CG321      CG321       HGA2
   81    23    24    84	 9 ;       HGA2      CG321      CG321       HGA2
   82    23    24    25	 9 ;       HGA2      CG321      CG321      CG2O2
   82    23    24    83	 9 ;       HGA2      CG321      CG321       HGA2
   82    23    24    84	 9 ;       HGA2      CG321      CG321       HGA2
   23    24    25    27	 9 ;      CG321      CG321      CG2O2      OG2D1
   23    24    25    26	 9 ;      CG321      CG321      CG2O2      OG311
   83    24    25    27	 9 ;       HGA2      CG321      CG2O2      OG2D1
   83    24    25    26	 9 ;       HGA2      CG321      CG2O2      OG311
   84    24    25    27	 9 ;       HGA2      CG321      CG2O2      OG2D1
   84    24    25    26	 9 ;       HGA2      CG321      CG2O2      OG311
   24    25    26    85	 9 ;      CG321      CG2O2      OG311       HGP1
   27    25    26    85	 9 ;      OG2D1      CG2O2      OG311       HGP1
   17    32    34    90	 9 ;     CG2DC1      CG311      CG331       HGA3
   17    32    34    91	 9 ;     CG2DC1      CG311      CG331       HGA3
   17    32    34    92	 9 ;     CG2DC1      CG311      CG331       HGA3
   33    32    34    90	 9 ;      CG331      CG311      CG331       HGA3
   33    32    34    91	 9 ;      CG331      CG311      CG331       HGA3
   33    32    34    92	 9 ;      CG331      CG311      CG331       HGA3
   86    32    34    90	 9 ;       HGA1      CG311      CG331       HGA3
   86    32    34    91	 9 ;       HGA1      CG311      CG331       HGA3
   86    32    34    92	 9 ;       HGA1      CG311      CG331       HGA3
   34    32    33    87	 9 ;      CG331      CG311      CG331       HGA3
   34    32    33    88	 9 ;      CG331      CG311      CG331       HGA3
   34    32    33    89	 9 ;      CG331      CG311      CG331       HGA3
   17    32    33    87	 9 ;     CG2DC1      CG311      CG331       HGA3
   17    32    33    88	 9 ;     CG2DC1      CG311      CG331       HGA3
   17    32    33    89	 9 ;     CG2DC1      CG311      CG331       HGA3
   86    32    33    87	 9 ;       HGA1      CG311      CG331       HGA3
   86    32    33    88	 9 ;       HGA1      CG311      CG331       HGA3
   86    32    33    89	 9 ;       HGA1      CG311      CG331       HGA3
    1    35    36    37	 9 ;      CG311      CG321      CG311      CG331
    1    35    36    38	 9 ;      CG311      CG321      CG311      CG331
    1    35    36    95	 9 ;      CG311      CG321      CG311       HGA1
   93    35    36    37	 9 ;       HGA2      CG321      CG311      CG331
   93    35    36    38	 9 ;       HGA2      CG321      CG311      CG331
   93    35    36    95	 9 ;       HGA2      CG321      CG311       HGA1
   94    35    36    37	 9 ;       HGA2      CG321      CG311      CG331
   94    35    36    38	 9 ;       HGA2      CG321      CG311      CG331
   94    35    36    95	 9 ;       HGA2      CG321      CG311       HGA1
   38    36    37    96	 9 ;      CG331      CG311      CG331       HGA3
   38    36    37    97	 9 ;      CG331      CG311      CG331       HGA3
   38    36    37    98	 9 ;      CG331      CG311      CG331       HGA3
   35    36    37    96	 9 ;      CG321      CG311      CG331       HGA3
   35    36    37    97	 9 ;      CG321      CG311      CG331       HGA3
   35    36    37    98	 9 ;      CG321      CG311      CG331       HGA3
   95    36    37    96	 9 ;       HGA1      CG311      CG331       HGA3
   95    36    37    97	 9 ;       HGA1      CG311      CG331       HGA3
   95    36    37    98	 9 ;       HGA1      CG311      CG331       HGA3
   37    36    38    99	 9 ;      CG331      CG311      CG331       HGA3
   37    36    38   100	 9 ;      CG331      CG311      CG331       HGA3
   37    36    38   101	 9 ;      CG331      CG311      CG331       HGA3
   35    36    38    99	 9 ;      CG321      CG311      CG331       HGA3
   35    36    38   100	 9 ;      CG321      CG311      CG331       HGA3
   35    36    38   101	 9 ;      CG321      CG311      CG331       HGA3
   95    36    38    99	 9 ;       HGA1      CG311      CG331       HGA3
   95    36    38   100	 9 ;       HGA1      CG311      CG331       HGA3
   95    36    38   101	 9 ;       HGA1      CG311      CG331       HGA3
    1    39    40    41	 9 ;      CG311      CG311      CG321      CG311
    1    39    40   103	 9 ;      CG311      CG311      CG321       HGA2
    1    39    40   104	 9 ;      CG311      CG311      CG321       HGA2
   74    39    40    41	 9 ;      OG311      CG311      CG321      CG311
   74    39    40   103	 9 ;      OG311      CG311      CG321       HGA2
   74    39    40   104	 9 ;      OG311      CG311      CG321       HGA2
  102    39    40    41	 9 ;       HGA1      CG311      CG321      CG311
  102    39    40   103	 9 ;       HGA1      CG311      CG321       HGA2
  102    39    40   104	 9 ;       HGA1      CG311      CG321       HGA2
   40    39    74    75	 9 ;      CG321      CG311      OG311       HGP1
    1    39    74    75	 9 ;      CG311      CG311      OG311       HGP1
  102    39    74    75	 9 ;       HGA1      CG311      OG311       HGP1
   39    40    41    42	 9 ;      CG311      CG321      CG311      CG331
   39    40    41    43	 9 ;      CG311      CG321      CG311      CG2O1
   39    40    41   105	 9 ;      CG311      CG321      CG311       HGA1
  103    40    41    42	 9 ;       HGA2      CG321      CG311      CG331
  103    40    41    43	 9 ;       HGA2      CG321      CG311      CG2O1
  103    40    41   105	 9 ;       HGA2      CG321      CG311       HGA1
  104    40    41    42	 9 ;       HGA2      CG321      CG311      CG331
  104    40    41    43	 9 ;       HGA2      CG321      CG311      CG2O1
  104    40    41   105	 9 ;       HGA2      CG321      CG311       HGA1
   43    41    42   106	 9 ;      CG2O1      CG311      CG331       HGA3
   43    41    42   107	 9 ;      CG2O1      CG311      CG331       HGA3
   43    41    42   108	 9 ;      CG2O1      CG311      CG331       HGA3
   40    41    42   106	 9 ;      CG321      CG311      CG331       HGA3
   40    41    42   107	 9 ;      CG321      CG311      CG331       HGA3
   40    41    42   108	 9 ;      CG321      CG311      CG331       HGA3
  105    41    42   106	 9 ;       HGA1      CG311      CG331       HGA3
  105    41    42   107	 9 ;       HGA1      CG311      CG331       HGA3
  105    41    42   108	 9 ;       HGA1      CG311      CG331       HGA3
   42    41    43    44	 9 ;      CG331      CG311      CG2O1      OG2D1
   42    41    43    45	 9 ;      CG331      CG311      CG2O1      NG2S1
   40    41    43    44	 9 ;      CG321      CG311      CG2O1      OG2D1
   40    41    43    45	 9 ;      CG321      CG311      CG2O1      NG2S1
  105    41    43    44	 9 ;       HGA1      CG311      CG2O1      OG2D1
  105    41    43    45	 9 ;       HGA1      CG311      CG2O1      NG2S1
   44    43    45    47	 9 ;      OG2D1      CG2O1      NG2S1      CG311
   44    43    45    46	 9 ;      OG2D1      CG2O1      NG2S1       HGP1
   41    43    45    47	 9 ;      CG311      CG2O1      NG2S1      CG311
   41    43    45    46	 9 ;      CG311      CG2O1      NG2S1       HGP1
   43    45    47    48	 9 ;      CG2O1      NG2S1      CG311      CG331
   43    45    47    49	 9 ;      CG2O1      NG2S1      CG311      CG2O1
   43    45    47   109	 9 ;      CG2O1      NG2S1      CG311       HGA1
   46    45    47    48	 9 ;       HGP1      NG2S1      CG311      CG331
   46    45    47    49	 9 ;       HGP1      NG2S1      CG311      CG2O1
   46    45    47   109	 9 ;       HGP1      NG2S1      CG311       HGA1
   45    47    48   110	 9 ;      NG2S1      CG311      CG331       HGA3
   45    47    48   111	 9 ;      NG2S1      CG311      CG331       HGA3
   45    47    48   112	 9 ;      NG2S1      CG311      CG331       HGA3
   49    47    48   110	 9 ;      CG2O1      CG311      CG331       HGA3
   49    47    48   111	 9 ;      CG2O1      CG311      CG331       HGA3
   49    47    48   112	 9 ;      CG2O1      CG311      CG331       HGA3
  109    47    48   110	 9 ;       HGA1      CG311      CG331       HGA3
  109    47    48   111	 9 ;       HGA1      CG311      CG331       HGA3
  109    47    48   112	 9 ;       HGA1      CG311      CG331       HGA3
   48    47    49    50	 9 ;      CG331      CG311      CG2O1      OG2D1
   48    47    49    51	 9 ;      CG331      CG311      CG2O1      NG2P1
   45    47    49    50	 9 ;      NG2S1      CG311      CG2O1      OG2D1
   45    47    49    51	 9 ;      NG2S1      CG311      CG2O1      NG2P1
  109    47    49    50	 9 ;       HGA1      CG311      CG2O1      OG2D1
  109    47    49    51	 9 ;       HGA1      CG311      CG2O1      NG2P1
   47    49    51    52	 9 ;      CG311      CG2O1      NG2P1       HGP2
   47    49    51    53	 9 ;      CG311      CG2O1      NG2P1     CG2DC1
   50    49    51    52	 9 ;      OG2D1      CG2O1      NG2P1       HGP2
   50    49    51    53	 9 ;      OG2D1      CG2O1      NG2P1     CG2DC1
   49    51    53    59	 9 ;      CG2O1      NG2P1     CG2DC1      CG2O1
   49    51    53    54	 9 ;      CG2O1      NG2P1     CG2DC1      CG321
   52    51    53    59	 9 ;       HGP2      NG2P1     CG2DC1      CG2O1
   52    51    53    54	 9 ;       HGP2      NG2P1     CG2DC1      CG321
   51    53    59    61	 9 ;      NG2P1     CG2DC1      CG2O1      NG2S1
   51    53    59    60	 9 ;      NG2P1     CG2DC1      CG2O1      OG2D1
   54    53    59    61	 9 ;      CG321     CG2DC1      CG2O1      NG2S1
   54    53    59    60	 9 ;      CG321     CG2DC1      CG2O1      OG2D1
   51    53    54    55	 9 ;      NG2P1     CG2DC1      CG321      CG321
   51    53    54   113	 9 ;      NG2P1     CG2DC1      CG321       HGA2
   51    53    54   114	 9 ;      NG2P1     CG2DC1      CG321       HGA2
   59    53    54    55	 9 ;      CG2O1     CG2DC1      CG321      CG321
   59    53    54   113	 9 ;      CG2O1     CG2DC1      CG321       HGA2
   59    53    54   114	 9 ;      CG2O1     CG2DC1      CG321       HGA2
   53    54    55    56	 9 ;     CG2DC1      CG321      CG321      CG2O2
   53    54    55   115	 9 ;     CG2DC1      CG321      CG321       HGA2
   53    54    55   116	 9 ;     CG2DC1      CG321      CG321       HGA2
  113    54    55    56	 9 ;       HGA2      CG321      CG321      CG2O2
  113    54    55   115	 9 ;       HGA2      CG321      CG321       HGA2
  113    54    55   116	 9 ;       HGA2      CG321      CG321       HGA2
  114    54    55    56	 9 ;       HGA2      CG321      CG321      CG2O2
  114    54    55   115	 9 ;       HGA2      CG321      CG321       HGA2
  114    54    55   116	 9 ;       HGA2      CG321      CG321       HGA2
   54    55    56    57	 9 ;      CG321      CG321      CG2O2      OG2D1
   54    55    56    58	 9 ;      CG321      CG321      CG2O2      OG311
  115    55    56    57	 9 ;       HGA2      CG321      CG2O2      OG2D1
  115    55    56    58	 9 ;       HGA2      CG321      CG2O2      OG311
  116    55    56    57	 9 ;       HGA2      CG321      CG2O2      OG2D1
  116    55    56    58	 9 ;       HGA2      CG321      CG2O2      OG311
   57    56    58   117	 9 ;      OG2D1      CG2O2      OG311       HGP1
   55    56    58   117	 9 ;      CG321      CG2O2      OG311       HGP1
   53    59    61    62	 9 ;     CG2DC1      CG2O1      NG2S1       HGP1
   53    59    61    63	 9 ;     CG2DC1      CG2O1      NG2S1      CG311
   60    59    61    62	 9 ;      OG2D1      CG2O1      NG2S1       HGP1
   60    59    61    63	 9 ;      OG2D1      CG2O1      NG2S1      CG311
   62    61    63    64	 9 ;       HGP1      NG2S1      CG311      CG321
   62    61    63    71	 9 ;       HGP1      NG2S1      CG311      CG2O2
   62    61    63   118	 9 ;       HGP1      NG2S1      CG311       HGA1
   59    61    63    64	 9 ;      CG2O1      NG2S1      CG311      CG321
   59    61    63    71	 9 ;      CG2O1      NG2S1      CG311      CG2O2
   59    61    63   118	 9 ;      CG2O1      NG2S1      CG311       HGA1
   61    63    64    65	 9 ;      NG2S1      CG311      CG321     CG2R61
   61    63    64   119	 9 ;      NG2S1      CG311      CG321       HGA2
   61    63    64   120	 9 ;      NG2S1      CG311      CG321       HGA2
   71    63    64    65	 9 ;      CG2O2      CG311      CG321     CG2R61
   71    63    64   119	 9 ;      CG2O2      CG311      CG321       HGA2
   71    63    64   120	 9 ;      CG2O2      CG311      CG321       HGA2
  118    63    64    65	 9 ;       HGA1      CG311      CG321     CG2R61
  118    63    64   119	 9 ;       HGA1      CG311      CG321       HGA2
  118    63    64   120	 9 ;       HGA1      CG311      CG321       HGA2
   64    63    71    73	 9 ;      CG321      CG311      CG2O2      OG2D1
   64    63    71    72	 9 ;      CG321      CG311      CG2O2      OG311
   61    63    71    73	 9 ;      NG2S1      CG311      CG2O2      OG2D1
   61    63    71    72	 9 ;      NG2S1      CG311      CG2O2      OG311
  118    63    71    73	 9 ;       HGA1      CG311      CG2O2      OG2D1
  118    63    71    72	 9 ;       HGA1      CG311      CG2O2      OG311
   63    64    65    70	 9 ;      CG311      CG321     CG2R61     CG2R61
   63    64    65    66	 9 ;      CG311      CG321     CG2R61     CG2R61
  119    64    65    70	 9 ;       HGA2      CG321     CG2R61     CG2R61
  119    64    65    66	 9 ;       HGA2      CG321     CG2R61     CG2R61
  120    64    65    70	 9 ;       HGA2      CG321     CG2R61     CG2R61
  120    64    65    66	 9 ;       HGA2      CG321     CG2R61     CG2R61
   64    65    70    69	 9 ;      CG321     CG2R61     CG2R61     CG2R61
   64    65    70   125	 9 ;      CG321     CG2R61     CG2R61      HGR61
   66    65    70    69	 9 ;     CG2R61     CG2R61     CG2R61     CG2R61
   66    65    70   125	 9 ;     CG2R61     CG2R61     CG2R61      HGR61
   64    65    66    67	 9 ;      CG321     CG2R61     CG2R61     CG2R61
   64    65    66   121	 9 ;      CG321     CG2R61     CG2R61      HGR61
   70    65    66    67	 9 ;     CG2R61     CG2R61     CG2R61     CG2R61
   70    65    66   121	 9 ;     CG2R61     CG2R61     CG2R61      HGR61
   65    66    67    68	 9 ;     CG2R61     CG2R61     CG2R61     CG2R61
   65    66    67   122	 9 ;     CG2R61     CG2R61     CG2R61      HGR61
  121    66    67    68	 9 ;      HGR61     CG2R61     CG2R61     CG2R61
  121    66    67   122	 9 ;      HGR61     CG2R61     CG2R61      HGR61
   66    67    68    69	 9 ;     CG2R61     CG2R61     CG2R61     CG2R61
   66    67    68   123	 9 ;     CG2R61     CG2R61     CG2R61      HGR61
  122    67    68    69	 9 ;      HGR61     CG2R61     CG2R61     CG2R61
  122    67    68   123	 9 ;      HGR61     CG2R61     CG2R61      HGR61
   67    68    69    70	 9 ;     CG2R61     CG2R61     CG2R61     CG2R61
   67    68    69   124	 9 ;     CG2R61     CG2R61     CG2R61      HGR61
  123    68    69    70	 9 ;      HGR61     CG2R61     CG2R61     CG2R61
  123    68    69   124	 9 ;      HGR61     CG2R61     CG2R61      HGR61
   68    69    70    65	 9 ;     CG2R61     CG2R61     CG2R61     CG2R61
   68    69    70   125	 9 ;     CG2R61     CG2R61     CG2R61      HGR61
  124    69    70    65	 9 ;      HGR61     CG2R61     CG2R61     CG2R61
  124    69    70   125	 9 ;      HGR61     CG2R61     CG2R61      HGR61
   73    71    72   126	 9 ;      OG2D1      CG2O2      OG311       HGP1
   63    71    72   126	 9 ;      CG311      CG2O2      OG311       HGP1

[ dihedrals ]
;	ai	  aj	ak	  al funct			  c0			c1			  c2			c3
    3     6     2     4	 2
    8     7    10     9	 2
   14    17    13    15	 2
   17    14    32    18	 2
   19    22    18    20	 2
   25    24    27    26	 2
   43    41    45    44	 2
   49    47    51    50	 2
   53    59    54    51	 2
   56    55    57    58	 2
   59    53    61    60	 2
   71    63    73    72	 2

