Gromacs Runs One Microsecond At Cannonball Speeds
   45
    1LIG     C2    1  -1.611   0.430  -1.611
    1LIG     O5    2  -1.522   0.172  -1.577
    1LIG     C4    3  -1.306   0.221  -1.659
    1LIG     C5    4  -1.219   0.319  -1.709
    1LIG     C6    5  -1.259   0.092  -1.634
    1LIG     C7    6  -1.084   0.286  -1.731
    1LIG     C8    7  -1.125   0.059  -1.658
    1LIG     C9    8  -1.038   0.156  -1.706
    1LIG    C10    9  -1.497   0.389  -1.670
    1LIG    C11   10  -1.414   0.462  -1.772
    1LIG    C12   11  -1.448   0.254  -1.630
    1LIG    C13   12  -1.266   0.460  -1.734
    1LIG     N1   13  -1.601   0.665  -1.580
    1LIG     O4   14  -1.781   0.574  -1.692
    1LIG     C3   15  -1.675   0.561  -1.634
    1LIG     H5   16  -1.538   0.636  -1.506
    1LIG    C14   17  -1.659   0.801  -1.573
    1LIG    C16   18  -1.589   0.902  -1.668
    1LIG    C17   19  -1.474   0.841  -1.748
    1LIG    C18   20  -1.689   0.963  -1.766
    1LIG     O2   21  -1.707   0.805  -1.332
    1LIG    C15   22  -1.643   0.848  -1.427
    1LIG     O3   23  -1.555   0.951  -1.414
    1LIG     H4   24  -1.544   1.001  -1.498
    1LIG     C1   25  -0.957  -0.097  -1.594
    1LIG     O1   26  -1.093  -0.071  -1.629
    1LIG     H1   27  -1.657   0.365  -1.546
    1LIG     H2   28  -1.324   0.020  -1.597
    1LIG     H3   29  -1.019   0.358  -1.766
    1LIG     H6   30  -0.939   0.133  -1.724
    1LIG     H7   31  -1.426   0.414  -1.867
    1LIG     H8   32  -1.447   0.563  -1.778
    1LIG     H9   33  -1.253   0.518  -1.644
    1LIG    H10   34  -1.210   0.502  -1.814
    1LIG     HA   35  -1.761   0.796  -1.604
    1LIG     HB   36  -1.548   0.977  -1.603
    1LIG   HG21   37  -1.512   0.766  -1.813
    1LIG   HG22   38  -1.402   0.798  -1.681
    1LIG   HG23   39  -1.426   0.918  -1.806
    1LIG   HG11   40  -1.729   0.886  -1.830
    1LIG   HG12   41  -1.640   1.037  -1.826
    1LIG   HG13   42  -1.770   1.009  -1.712
    1LIG    H11   43  -0.946  -0.202  -1.574
    1LIG    H12   44  -0.932  -0.041  -1.506
    1LIG    H13   45  -0.893  -0.069  -1.674
   0.00000   0.00000   0.00000
