; Created by cgenff_charmm2gmx.py

[ moleculetype ]
; Name			   nrexcl
LIG				 3

[ atoms ]
;	 nr		  type	resnr residue  atom   cgnr	   charge		mass  typeB    chargeB		massB
; residue	 1 LIG rtp LIG q	qsum
     1      NG2P1      1    LIG     N1      1     -0.615     14.007   ;
     2      CG2N1      1    LIG     C1      2      0.677     12.011   ;
     3      NG2P1      1    LIG     N2      3     -0.707     14.007   ;
     4      NG2P1      1    LIG     N3      4     -0.728     14.007   ;
     5      CG2O1      1    LIG     C2      5      0.797     12.011   ;
     6      OG2D1      1    LIG     O1      6     -0.505     15.999   ;
     7       HGP2      1    LIG     H1      7      0.402      1.008   ;
     8       HGP2      1    LIG     H2      8      0.424      1.008   ;
     9       HGP2      1    LIG     H3      9      0.424      1.008   ;
    10       HGP2      1    LIG     H4     10      0.476      1.008   ;
    11      CG324      1    LIG     C3     11      0.193     12.011   ;
    12     CG2R61      1    LIG     C4     12      0.006     12.011   ;
    13     CG2R61      1    LIG     C5     13     -0.100     12.011   ;
    14     CG2R61      1    LIG     C6     14      0.025     12.011   ;
    15      CLGR1      1    LIG    CL1     15     -0.188     35.453   ;
    16     CG2R61      1    LIG     C7     16      0.313     12.011   ;
    17     CG2R61      1    LIG     C8     17      0.025     12.011   ;
    18     CG2R61      1    LIG     C9     18     -0.100     12.011   ;
    19      CLGR1      1    LIG    CL2     19     -0.188     35.453   ;
    20      NG2S1      1    LIG     N4     20     -0.514     14.007   ;
    21      CG2O1      1    LIG    C10     21      0.527     12.011   ;
    22      OG2D1      1    LIG     O2     22     -0.516     15.999   ;
    23      CG331      1    LIG    C11     23     -0.269     12.011   ;
    24       HGP1      1    LIG     H5     24      0.321      1.008   ;
    25      CG321      1    LIG    C12     25     -0.060     12.011   ;
    26     NG2R51      1    LIG     N5     26     -0.278     14.007   ;
    27     CG2RC0      1    LIG    C13     27      0.316     12.011   ;
    28     CG2RC0      1    LIG    C14     28      0.099     12.011   ;
    29     CG2R61      1    LIG    C15     29     -0.258     12.011   ;
    30     CG2R61      1    LIG    C16     30     -0.258     12.011   ;
    31     CG2R51      1    LIG    C17     31     -0.302     12.011   ;
    32     CG2R61      1    LIG    C18     32     -0.205     12.011   ;
    33     CG2R61      1    LIG    C19     33     -0.177     12.011   ;
    34     CG2R51      1    LIG    C20     34     -0.071     12.011   ;
    35       HGA2      1    LIG    HC2     35      0.090      1.008   ;
    36       HGA2      1    LIG    HC3     36      0.090      1.008   ;
    37      HGR62      1    LIG     HC     37      0.150      1.008   ;
    38      HGR62      1    LIG    HC1     38      0.150      1.008   ;
    39       HGA3      1    LIG    HC4     39      0.090      1.008   ;
    40       HGA3      1    LIG    HC5     40      0.090      1.008   ;
    41       HGA3      1    LIG    HC6     41      0.090      1.008   ;
    42       HGA2      1    LIG    HC7     42      0.090      1.008   ;
    43       HGA2      1    LIG    HC8     43      0.090      1.008   ;
    44      HGR61      1    LIG    HC9     44      0.184      1.008   ;
    45      HGR61      1    LIG   HC10     45      0.197      1.008   ;
    46      HGR51      1    LIG   HC11     46      0.187      1.008   ;
    47      HGR61      1    LIG   HC12     47      0.134      1.008   ;
    48      HGR61      1    LIG   HC13     48      0.134      1.008   ;
    49      HGR52      1    LIG   HC14     49      0.148      1.008   ;
    50        LPH      1    LIG    LP1     50      0.050      0.000   ;
    51        LPH      1    LIG    LP2     51      0.050      0.000   ;

[ bonds ]
;	ai	  aj funct			  c0			c1			  c2			c3
    1     2	 1 ;       NG2P1      CG2N1
    1     7	 1 ;       NG2P1       HGP2
    1    11	 1 ;       NG2P1      CG324
    2     4	 1 ;       CG2N1      NG2P1
    2     3	 1 ;       CG2N1      NG2P1
    3     8	 1 ;       NG2P1       HGP2
    3     9	 1 ;       NG2P1       HGP2
    4     5	 1 ;       NG2P1      CG2O1
    4    10	 1 ;       NG2P1       HGP2
    5     6	 1 ;       CG2O1      OG2D1
    5    25	 1 ;       CG2O1      CG321
   11    12	 1 ;       CG324     CG2R61
   11    35	 1 ;       CG324       HGA2
   11    36	 1 ;       CG324       HGA2
   12    18	 1 ;      CG2R61     CG2R61
   12    13	 1 ;      CG2R61     CG2R61
   13    14	 1 ;      CG2R61     CG2R61
   13    37	 1 ;      CG2R61      HGR62
   14    16	 1 ;      CG2R61     CG2R61
   14    15	 1 ;      CG2R61      CLGR1
   16    17	 1 ;      CG2R61     CG2R61
   16    20	 1 ;      CG2R61      NG2S1
   17    18	 1 ;      CG2R61     CG2R61
   17    19	 1 ;      CG2R61      CLGR1
   18    38	 1 ;      CG2R61      HGR62
   20    21	 1 ;       NG2S1      CG2O1
   20    24	 1 ;       NG2S1       HGP1
   21    22	 1 ;       CG2O1      OG2D1
   21    23	 1 ;       CG2O1      CG331
   23    39	 1 ;       CG331       HGA3
   23    40	 1 ;       CG331       HGA3
   23    41	 1 ;       CG331       HGA3
   25    26	 1 ;       CG321     NG2R51
   25    42	 1 ;       CG321       HGA2
   25    43	 1 ;       CG321       HGA2
   26    27	 1 ;      NG2R51     CG2RC0
   26    34	 1 ;      NG2R51     CG2R51
   27    29	 1 ;      CG2RC0     CG2R61
   27    28	 1 ;      CG2RC0     CG2RC0
   28    31	 1 ;      CG2RC0     CG2R51
   28    30	 1 ;      CG2RC0     CG2R61
   29    33	 1 ;      CG2R61     CG2R61
   29    44	 1 ;      CG2R61      HGR61
   30    32	 1 ;      CG2R61     CG2R61
   30    45	 1 ;      CG2R61      HGR61
   31    34	 1 ;      CG2R51     CG2R51
   31    46	 1 ;      CG2R51      HGR51
   32    33	 1 ;      CG2R61     CG2R61
   32    47	 1 ;      CG2R61      HGR61
   33    48	 1 ;      CG2R61      HGR61
   34    49	 1 ;      CG2R51      HGR52

[ pairs ]
;	ai	  aj funct			  c0			c1			  c2			c3
    1     5	 1
    1    10	 1
    1     8	 1
    1     9	 1
    1    18	 1
    1    13	 1
    2    12	 1
    2    35	 1
    2    36	 1
    2     6	 1
    2    25	 1
    3     7	 1
    3    11	 1
    3     5	 1
    3    10	 1
    4     7	 1
    4    11	 1
    4     8	 1
    4     9	 1
    4    26	 1
    4    42	 1
    4    43	 1
    5    27	 1
    5    34	 1
    6    10	 1
    6    26	 1
    6    42	 1
    6    43	 1
    7    12	 1
    7    35	 1
    7    36	 1
   10    25	 1
   11    17	 1
   11    38	 1
   11    14	 1
   11    37	 1
   12    16	 1
   12    15	 1
   50    12	 1
   12    19	 1
   51    12	 1
   13    35	 1
   13    36	 1
   13    17	 1
   13    38	 1
   13    20	 1
   14    18	 1
   14    19	 1
   51    14	 1
   14    21	 1
   14    24	 1
   15    37	 1
   50    37	 1
   15    17	 1
   50    17	 1
   15    20	 1
   50    20	 1
   16    37	 1
   16    38	 1
   16    22	 1
   16    23	 1
   17    21	 1
   17    24	 1
   18    35	 1
   18    36	 1
   18    37	 1
   18    20	 1
   19    20	 1
   51    20	 1
   19    38	 1
   51    38	 1
   20    39	 1
   20    40	 1
   20    41	 1
   22    24	 1
   22    39	 1
   22    40	 1
   22    41	 1
   23    24	 1
   25    29	 1
   25    28	 1
   25    31	 1
   25    49	 1
   26    33	 1
   26    44	 1
   26    30	 1
   26    46	 1
   27    42	 1
   27    43	 1
   27    49	 1
   27    46	 1
   27    32	 1
   27    45	 1
   27    48	 1
   28    33	 1
   28    44	 1
   28    47	 1
   28    49	 1
   29    34	 1
   29    31	 1
   29    30	 1
   29    47	 1
   30    34	 1
   30    46	 1
   30    48	 1
   31    32	 1
   31    45	 1
   32    44	 1
   33    45	 1
   34    42	 1
   34    43	 1
   44    48	 1
   45    47	 1
   46    49	 1
   47    48	 1

[ angles ]
;	ai	  aj	ak funct			c0			  c1			c2			  c3
    2     1     7	5 ;      CG2N1      NG2P1       HGP2
    2     1    11	5 ;      CG2N1      NG2P1      CG324
    7     1    11	5 ;       HGP2      NG2P1      CG324
    4     2     3	5 ;      NG2P1      CG2N1      NG2P1
    4     2     1	5 ;      NG2P1      CG2N1      NG2P1
    3     2     1	5 ;      NG2P1      CG2N1      NG2P1
    8     3     2	5 ;       HGP2      NG2P1      CG2N1
    8     3     9	5 ;       HGP2      NG2P1       HGP2
    2     3     9	5 ;      CG2N1      NG2P1       HGP2
    5     4    10	5 ;      CG2O1      NG2P1       HGP2
    5     4     2	5 ;      CG2O1      NG2P1      CG2N1
   10     4     2	5 ;       HGP2      NG2P1      CG2N1
    6     5    25	5 ;      OG2D1      CG2O1      CG321
    6     5     4	5 ;      OG2D1      CG2O1      NG2P1
   25     5     4	5 ;      CG321      CG2O1      NG2P1
    1    11    12	5 ;      NG2P1      CG324     CG2R61
    1    11    35	5 ;      NG2P1      CG324       HGA2
    1    11    36	5 ;      NG2P1      CG324       HGA2
   12    11    35	5 ;     CG2R61      CG324       HGA2
   12    11    36	5 ;     CG2R61      CG324       HGA2
   35    11    36	5 ;       HGA2      CG324       HGA2
   11    12    18	5 ;      CG324     CG2R61     CG2R61
   11    12    13	5 ;      CG324     CG2R61     CG2R61
   18    12    13	5 ;     CG2R61     CG2R61     CG2R61
   12    13    14	5 ;     CG2R61     CG2R61     CG2R61
   12    13    37	5 ;     CG2R61     CG2R61      HGR62
   14    13    37	5 ;     CG2R61     CG2R61      HGR62
   13    14    16	5 ;     CG2R61     CG2R61     CG2R61
   13    14    15	5 ;     CG2R61     CG2R61      CLGR1
   16    14    15	5 ;     CG2R61     CG2R61      CLGR1
   17    16    14	5 ;     CG2R61     CG2R61     CG2R61
   17    16    20	5 ;     CG2R61     CG2R61      NG2S1
   14    16    20	5 ;     CG2R61     CG2R61      NG2S1
   18    17    19	5 ;     CG2R61     CG2R61      CLGR1
   18    17    16	5 ;     CG2R61     CG2R61     CG2R61
   19    17    16	5 ;      CLGR1     CG2R61     CG2R61
   12    18    17	5 ;     CG2R61     CG2R61     CG2R61
   12    18    38	5 ;     CG2R61     CG2R61      HGR62
   17    18    38	5 ;     CG2R61     CG2R61      HGR62
   16    20    21	5 ;     CG2R61      NG2S1      CG2O1
   16    20    24	5 ;     CG2R61      NG2S1       HGP1
   21    20    24	5 ;      CG2O1      NG2S1       HGP1
   20    21    22	5 ;      NG2S1      CG2O1      OG2D1
   20    21    23	5 ;      NG2S1      CG2O1      CG331
   22    21    23	5 ;      OG2D1      CG2O1      CG331
   21    23    39	5 ;      CG2O1      CG331       HGA3
   21    23    40	5 ;      CG2O1      CG331       HGA3
   21    23    41	5 ;      CG2O1      CG331       HGA3
   39    23    40	5 ;       HGA3      CG331       HGA3
   39    23    41	5 ;       HGA3      CG331       HGA3
   40    23    41	5 ;       HGA3      CG331       HGA3
    5    25    26	5 ;      CG2O1      CG321     NG2R51
    5    25    42	5 ;      CG2O1      CG321       HGA2
    5    25    43	5 ;      CG2O1      CG321       HGA2
   26    25    42	5 ;     NG2R51      CG321       HGA2
   26    25    43	5 ;     NG2R51      CG321       HGA2
   42    25    43	5 ;       HGA2      CG321       HGA2
   25    26    27	5 ;      CG321     NG2R51     CG2RC0
   25    26    34	5 ;      CG321     NG2R51     CG2R51
   27    26    34	5 ;     CG2RC0     NG2R51     CG2R51
   26    27    29	5 ;     NG2R51     CG2RC0     CG2R61
   26    27    28	5 ;     NG2R51     CG2RC0     CG2RC0
   29    27    28	5 ;     CG2R61     CG2RC0     CG2RC0
   27    28    31	5 ;     CG2RC0     CG2RC0     CG2R51
   27    28    30	5 ;     CG2RC0     CG2RC0     CG2R61
   31    28    30	5 ;     CG2R51     CG2RC0     CG2R61
   27    29    33	5 ;     CG2RC0     CG2R61     CG2R61
   27    29    44	5 ;     CG2RC0     CG2R61      HGR61
   33    29    44	5 ;     CG2R61     CG2R61      HGR61
   28    30    32	5 ;     CG2RC0     CG2R61     CG2R61
   28    30    45	5 ;     CG2RC0     CG2R61      HGR61
   32    30    45	5 ;     CG2R61     CG2R61      HGR61
   34    31    28	5 ;     CG2R51     CG2R51     CG2RC0
   34    31    46	5 ;     CG2R51     CG2R51      HGR51
   28    31    46	5 ;     CG2RC0     CG2R51      HGR51
   33    32    30	5 ;     CG2R61     CG2R61     CG2R61
   33    32    47	5 ;     CG2R61     CG2R61      HGR61
   30    32    47	5 ;     CG2R61     CG2R61      HGR61
   29    33    32	5 ;     CG2R61     CG2R61     CG2R61
   29    33    48	5 ;     CG2R61     CG2R61      HGR61
   32    33    48	5 ;     CG2R61     CG2R61      HGR61
   26    34    31	5 ;     NG2R51     CG2R51     CG2R51
   26    34    49	5 ;     NG2R51     CG2R51      HGR52
   31    34    49	5 ;     CG2R51     CG2R51      HGR52

[ dihedrals ]
;	ai	  aj	ak	  al funct			  c0			c1			  c2			c3			  c4			c5
    7     1     2     4	 9 ;       HGP2      NG2P1      CG2N1      NG2P1
    7     1     2     3	 9 ;       HGP2      NG2P1      CG2N1      NG2P1
   11     1     2     4	 9 ;      CG324      NG2P1      CG2N1      NG2P1
   11     1     2     3	 9 ;      CG324      NG2P1      CG2N1      NG2P1
    2     1    11    12	 9 ;      CG2N1      NG2P1      CG324     CG2R61
    2     1    11    35	 9 ;      CG2N1      NG2P1      CG324       HGA2
    2     1    11    36	 9 ;      CG2N1      NG2P1      CG324       HGA2
    7     1    11    12	 9 ;       HGP2      NG2P1      CG324     CG2R61
    7     1    11    35	 9 ;       HGP2      NG2P1      CG324       HGA2
    7     1    11    36	 9 ;       HGP2      NG2P1      CG324       HGA2
    3     2     4     5	 9 ;      NG2P1      CG2N1      NG2P1      CG2O1
    3     2     4    10	 9 ;      NG2P1      CG2N1      NG2P1       HGP2
    1     2     4     5	 9 ;      NG2P1      CG2N1      NG2P1      CG2O1
    1     2     4    10	 9 ;      NG2P1      CG2N1      NG2P1       HGP2
    4     2     3     8	 9 ;      NG2P1      CG2N1      NG2P1       HGP2
    4     2     3     9	 9 ;      NG2P1      CG2N1      NG2P1       HGP2
    1     2     3     8	 9 ;      NG2P1      CG2N1      NG2P1       HGP2
    1     2     3     9	 9 ;      NG2P1      CG2N1      NG2P1       HGP2
   10     4     5     6	 9 ;       HGP2      NG2P1      CG2O1      OG2D1
   10     4     5    25	 9 ;       HGP2      NG2P1      CG2O1      CG321
    2     4     5     6	 9 ;      CG2N1      NG2P1      CG2O1      OG2D1
    2     4     5    25	 9 ;      CG2N1      NG2P1      CG2O1      CG321
    6     5    25    26	 9 ;      OG2D1      CG2O1      CG321     NG2R51
    6     5    25    42	 9 ;      OG2D1      CG2O1      CG321       HGA2
    6     5    25    43	 9 ;      OG2D1      CG2O1      CG321       HGA2
    4     5    25    26	 9 ;      NG2P1      CG2O1      CG321     NG2R51
    4     5    25    42	 9 ;      NG2P1      CG2O1      CG321       HGA2
    4     5    25    43	 9 ;      NG2P1      CG2O1      CG321       HGA2
    1    11    12    18	 9 ;      NG2P1      CG324     CG2R61     CG2R61
    1    11    12    13	 9 ;      NG2P1      CG324     CG2R61     CG2R61
   35    11    12    18	 9 ;       HGA2      CG324     CG2R61     CG2R61
   35    11    12    13	 9 ;       HGA2      CG324     CG2R61     CG2R61
   36    11    12    18	 9 ;       HGA2      CG324     CG2R61     CG2R61
   36    11    12    13	 9 ;       HGA2      CG324     CG2R61     CG2R61
   11    12    18    17	 9 ;      CG324     CG2R61     CG2R61     CG2R61
   11    12    18    38	 9 ;      CG324     CG2R61     CG2R61      HGR62
   13    12    18    17	 9 ;     CG2R61     CG2R61     CG2R61     CG2R61
   13    12    18    38	 9 ;     CG2R61     CG2R61     CG2R61      HGR62
   11    12    13    14	 9 ;      CG324     CG2R61     CG2R61     CG2R61
   11    12    13    37	 9 ;      CG324     CG2R61     CG2R61      HGR62
   18    12    13    14	 9 ;     CG2R61     CG2R61     CG2R61     CG2R61
   18    12    13    37	 9 ;     CG2R61     CG2R61     CG2R61      HGR62
   12    13    14    16	 9 ;     CG2R61     CG2R61     CG2R61     CG2R61
   12    13    14    15	 9 ;     CG2R61     CG2R61     CG2R61      CLGR1
   37    13    14    16	 9 ;      HGR62     CG2R61     CG2R61     CG2R61
   37    13    14    15	 9 ;      HGR62     CG2R61     CG2R61      CLGR1
   13    14    16    17	 9 ;     CG2R61     CG2R61     CG2R61     CG2R61
   13    14    16    20	 9 ;     CG2R61     CG2R61     CG2R61      NG2S1
   15    14    16    17	 9 ;      CLGR1     CG2R61     CG2R61     CG2R61
   15    14    16    20	 9 ;      CLGR1     CG2R61     CG2R61      NG2S1
   14    16    17    18	 9 ;     CG2R61     CG2R61     CG2R61     CG2R61
   14    16    17    19	 9 ;     CG2R61     CG2R61     CG2R61      CLGR1
   20    16    17    18	 9 ;      NG2S1     CG2R61     CG2R61     CG2R61
   20    16    17    19	 9 ;      NG2S1     CG2R61     CG2R61      CLGR1
   17    16    20    21	 9 ;     CG2R61     CG2R61      NG2S1      CG2O1
   17    16    20    24	 9 ;     CG2R61     CG2R61      NG2S1       HGP1
   14    16    20    21	 9 ;     CG2R61     CG2R61      NG2S1      CG2O1
   14    16    20    24	 9 ;     CG2R61     CG2R61      NG2S1       HGP1
   19    17    18    12	 9 ;      CLGR1     CG2R61     CG2R61     CG2R61
   19    17    18    38	 9 ;      CLGR1     CG2R61     CG2R61      HGR62
   16    17    18    12	 9 ;     CG2R61     CG2R61     CG2R61     CG2R61
   16    17    18    38	 9 ;     CG2R61     CG2R61     CG2R61      HGR62
   16    20    21    22	 9 ;     CG2R61      NG2S1      CG2O1      OG2D1
   16    20    21    23	 9 ;     CG2R61      NG2S1      CG2O1      CG331
   24    20    21    22	 9 ;       HGP1      NG2S1      CG2O1      OG2D1
   24    20    21    23	 9 ;       HGP1      NG2S1      CG2O1      CG331
   20    21    23    39	 9 ;      NG2S1      CG2O1      CG331       HGA3
   20    21    23    40	 9 ;      NG2S1      CG2O1      CG331       HGA3
   20    21    23    41	 9 ;      NG2S1      CG2O1      CG331       HGA3
   22    21    23    39	 9 ;      OG2D1      CG2O1      CG331       HGA3
   22    21    23    40	 9 ;      OG2D1      CG2O1      CG331       HGA3
   22    21    23    41	 9 ;      OG2D1      CG2O1      CG331       HGA3
    5    25    26    27	 9 ;      CG2O1      CG321     NG2R51     CG2RC0
    5    25    26    34	 9 ;      CG2O1      CG321     NG2R51     CG2R51
   42    25    26    27	 9 ;       HGA2      CG321     NG2R51     CG2RC0
   42    25    26    34	 9 ;       HGA2      CG321     NG2R51     CG2R51
   43    25    26    27	 9 ;       HGA2      CG321     NG2R51     CG2RC0
   43    25    26    34	 9 ;       HGA2      CG321     NG2R51     CG2R51
   25    26    27    29	 9 ;      CG321     NG2R51     CG2RC0     CG2R61
   25    26    27    28	 9 ;      CG321     NG2R51     CG2RC0     CG2RC0
   34    26    27    29	 9 ;     CG2R51     NG2R51     CG2RC0     CG2R61
   34    26    27    28	 9 ;     CG2R51     NG2R51     CG2RC0     CG2RC0
   25    26    34    31	 9 ;      CG321     NG2R51     CG2R51     CG2R51
   25    26    34    49	 9 ;      CG321     NG2R51     CG2R51      HGR52
   27    26    34    31	 9 ;     CG2RC0     NG2R51     CG2R51     CG2R51
   27    26    34    49	 9 ;     CG2RC0     NG2R51     CG2R51      HGR52
   26    27    29    33	 9 ;     NG2R51     CG2RC0     CG2R61     CG2R61
   26    27    29    44	 9 ;     NG2R51     CG2RC0     CG2R61      HGR61
   28    27    29    33	 9 ;     CG2RC0     CG2RC0     CG2R61     CG2R61
   28    27    29    44	 9 ;     CG2RC0     CG2RC0     CG2R61      HGR61
   26    27    28    31	 9 ;     NG2R51     CG2RC0     CG2RC0     CG2R51
   26    27    28    30	 9 ;     NG2R51     CG2RC0     CG2RC0     CG2R61
   29    27    28    31	 9 ;     CG2R61     CG2RC0     CG2RC0     CG2R51
   29    27    28    30	 9 ;     CG2R61     CG2RC0     CG2RC0     CG2R61
   27    28    31    34	 9 ;     CG2RC0     CG2RC0     CG2R51     CG2R51
   27    28    31    46	 9 ;     CG2RC0     CG2RC0     CG2R51      HGR51
   30    28    31    34	 9 ;     CG2R61     CG2RC0     CG2R51     CG2R51
   30    28    31    46	 9 ;     CG2R61     CG2RC0     CG2R51      HGR51
   27    28    30    32	 9 ;     CG2RC0     CG2RC0     CG2R61     CG2R61
   27    28    30    45	 9 ;     CG2RC0     CG2RC0     CG2R61      HGR61
   31    28    30    32	 9 ;     CG2R51     CG2RC0     CG2R61     CG2R61
   31    28    30    45	 9 ;     CG2R51     CG2RC0     CG2R61      HGR61
   27    29    33    32	 9 ;     CG2RC0     CG2R61     CG2R61     CG2R61
   27    29    33    48	 9 ;     CG2RC0     CG2R61     CG2R61      HGR61
   44    29    33    32	 9 ;      HGR61     CG2R61     CG2R61     CG2R61
   44    29    33    48	 9 ;      HGR61     CG2R61     CG2R61      HGR61
   28    30    32    33	 9 ;     CG2RC0     CG2R61     CG2R61     CG2R61
   28    30    32    47	 9 ;     CG2RC0     CG2R61     CG2R61      HGR61
   45    30    32    33	 9 ;      HGR61     CG2R61     CG2R61     CG2R61
   45    30    32    47	 9 ;      HGR61     CG2R61     CG2R61      HGR61
   28    31    34    26	 9 ;     CG2RC0     CG2R51     CG2R51     NG2R51
   28    31    34    49	 9 ;     CG2RC0     CG2R51     CG2R51      HGR52
   46    31    34    26	 9 ;      HGR51     CG2R51     CG2R51     NG2R51
   46    31    34    49	 9 ;      HGR51     CG2R51     CG2R51      HGR52
   30    32    33    29	 9 ;     CG2R61     CG2R61     CG2R61     CG2R61
   30    32    33    48	 9 ;     CG2R61     CG2R61     CG2R61      HGR61
   47    32    33    29	 9 ;      HGR61     CG2R61     CG2R61     CG2R61
   47    32    33    48	 9 ;      HGR61     CG2R61     CG2R61      HGR61

[ dihedrals ]
;	ai	  aj	ak	  al funct			  c0			c1			  c2			c3
    2     4     3     1	 2
    5    25     4     6	 2
   21    23    20    22	 2

[ virtual_sites2 ]
; Site   from				funct a
   50    15    14     2   -0.164
   51    19    17     2   -0.164

[ exclusions ]
;	ai	  aj
   15    50
   19    51
   50    14
   51    17
   50    13
   50    16
   51    18
   51    16
   50    12
   51    12
   51    14
   50    37
   50    17
   50    20
   51    20
   51    38

