Good gRace! Old Maple Actually Chews Slate
   51
    1LIG     N1    1  -1.614   0.260  -1.688
    1LIG     C1    2  -1.524   0.361  -1.694
    1LIG     N2    3  -1.563   0.487  -1.718
    1LIG     N3    4  -1.392   0.334  -1.676
    1LIG     C2    5  -1.286   0.423  -1.714
    1LIG     O1    6  -1.312   0.520  -1.784
    1LIG     H1    7  -1.583   0.170  -1.656
    1LIG     H2    8  -1.492   0.559  -1.733
    1LIG     H3    9  -1.659   0.517  -1.717
    1LIG     H4   10  -1.366   0.249  -1.628
    1LIG     C3   11  -1.758   0.272  -1.722
    1LIG     C4   12  -1.842   0.273  -1.597
    1LIG     C5   13  -1.981   0.265  -1.607
    1LIG     C6   14  -2.062   0.262  -1.492
    1LIG    CL1   15  -2.233   0.245  -1.518
    1LIG     C7   16  -2.009   0.269  -1.361
    1LIG     C8   17  -1.870   0.284  -1.352
    1LIG     C9   18  -1.788   0.283  -1.469
    1LIG    CL2   19  -1.784   0.323  -1.207
    1LIG     N4   20  -2.105   0.261  -1.256
    1LIG    C10   21  -2.146   0.356  -1.165
    1LIG     O2   22  -2.111   0.473  -1.159
    1LIG    C11   23  -2.240   0.299  -1.060
    1LIG     H5   24  -2.128   0.165  -1.229
    1LIG    C12   25  -1.146   0.391  -1.669
    1LIG     N5   26  -1.146   0.337  -1.535
    1LIG    C13   27  -1.116   0.207  -1.498
    1LIG    C14   28  -1.107   0.206  -1.359
    1LIG    C15   29  -1.097   0.090  -1.574
    1LIG    C16   30  -1.071   0.087  -1.293
    1LIG    C17   31  -1.143   0.336  -1.314
    1LIG    C18   32  -1.048  -0.029  -1.367
    1LIG    C19   33  -1.062  -0.028  -1.505
    1LIG    C20   34  -1.170   0.413  -1.423
    1LIG    HC2   35  -1.774   0.364  -1.777
    1LIG    HC3   36  -1.787   0.187  -1.784
    1LIG     HC   37  -2.028   0.261  -1.704
    1LIG    HC1   38  -1.681   0.289  -1.457
    1LIG    HC4   39  -2.270   0.377  -0.991
    1LIG    HC5   40  -2.189   0.219  -1.006
    1LIG    HC6   41  -2.329   0.258  -1.110
    1LIG    HC7   42  -1.102   0.318  -1.737
    1LIG    HC8   43  -1.086   0.482  -1.671
    1LIG    HC9   44  -1.108   0.090  -1.681
    1LIG   HC10   45  -1.060   0.086  -1.185
    1LIG   HC11   46  -1.148   0.368  -1.211
    1LIG   HC12   47  -1.019  -0.120  -1.316
    1LIG   HC13   48  -1.047  -0.119  -1.561
    1LIG   HC14   49  -1.204   0.516  -1.422
    1LIG    LP1   50  -2.394   0.229  -1.542
    1LIG    LP2   51  -1.704   0.360  -1.069
   0.00000   0.00000   0.00000
