Gromacs Runs On Most of All Computer Systems
   72
    1LIG     C1    1  -1.548   0.299  -1.561
    1LIG     O1    2  -1.582   0.182  -1.549
    1LIG     N1    3  -1.416   0.332  -1.588
    1LIG     H1    4  -1.396   0.427  -1.614
    1LIG     C2    5  -1.648   0.408  -1.535
    1LIG     C3    6  -1.615   0.545  -1.531
    1LIG     C4    7  -1.708   0.644  -1.492
    1LIG     C5    8  -1.841   0.604  -1.466
    1LIG     C6    9  -1.876   0.469  -1.484
    1LIG     C7   10  -1.951   0.702  -1.429
    1LIG     N2   11  -2.013   0.434  -1.501
    1LIG     C8   12  -1.780   0.371  -1.510
    1LIG      S   13  -2.087   0.491  -1.642
    1LIG     C9   14  -2.090   0.364  -1.399
    1LIG     O2   15  -2.207   0.412  -1.663
    1LIG     O3   16  -1.988   0.504  -1.746
    1LIG    C10   17  -2.139   0.655  -1.594
    1LIG    C11   18  -2.027   0.750  -1.553
    1LIG     N3   19  -1.676   0.781  -1.499
    1LIG     H2   20  -1.613   0.812  -1.425
    1LIG    C12   21  -1.642   0.844  -1.626
    1LIG    C13   22  -1.492   0.861  -1.638
    1LIG    C14   23  -1.306   0.233  -1.603
    1LIG    C15   24  -1.211   0.227  -1.481
    1LIG    C16   25  -1.222   0.122  -1.373
    1LIG    C17   26  -1.318   0.021  -1.369
    1LIG    C18   27  -1.306  -0.084  -1.278
    1LIG    C19   28  -1.198  -0.091  -1.189
    1LIG    C20   29  -1.104   0.011  -1.189
    1LIG    C21   30  -1.116   0.117  -1.279
    1LIG    C22   31  -1.220   0.257  -1.733
    1LIG    C23   32  -1.223   0.403  -1.783
    1LIG     N4   33  -1.119   0.481  -1.707
    1LIG     H3   34  -1.079   0.416  -1.637
    1LIG     H4   35  -1.041   0.503  -1.769
    1LIG    C24   36  -1.169   0.605  -1.645
    1LIG    C25   37  -1.076   0.672  -1.548
    1LIG    C26   38  -1.200   0.604  -1.499
    1LIG     O4   39  -1.082   0.225  -1.712
    1LIG     H5   40  -1.081   0.139  -1.666
    1LIG     HC   41  -1.515   0.575  -1.558
    1LIG    HC2   42  -2.020   0.653  -1.361
    1LIG    HC3   43  -1.906   0.788  -1.380
    1LIG    HC1   44  -1.808   0.267  -1.511
    1LIG    HC4   45  -2.192   0.699  -1.678
    1LIG    HC5   46  -2.209   0.646  -1.511
    1LIG    HC6   47  -2.070   0.847  -1.531
    1LIG    HC7   48  -1.957   0.760  -1.636
    1LIG    HC8   49  -1.678   0.781  -1.707
    1LIG    HC9   50  -1.690   0.941  -1.632
    1LIG   HC10   51  -1.352   0.135  -1.613
    1LIG   HC11   52  -1.220   0.323  -1.431
    1LIG   HC12   53  -1.109   0.221  -1.520
    1LIG   HC13   54  -1.402   0.024  -1.437
    1LIG   HC14   55  -1.382  -0.162  -1.276
    1LIG   HC15   56  -1.188  -0.174  -1.121
    1LIG   HC16   57  -1.021   0.009  -1.119
    1LIG   HC17   58  -1.043   0.196  -1.278
    1LIG   HC18   59  -1.259   0.193  -1.812
    1LIG   HC19   60  -1.199   0.405  -1.890
    1LIG   HC20   61  -1.321   0.446  -1.767
    1LIG   HC21   62  -1.229   0.670  -1.708
    1LIG   HC22   63  -0.978   0.627  -1.527
    1LIG   HC23   64  -1.079   0.780  -1.547
    1LIG   HC24   65  -1.283   0.664  -1.461
    1LIG   HC25   66  -1.185   0.508  -1.449
    1LIG   HC26   67  -1.468   0.908  -1.734
    1LIG   HC27   68  -1.443   0.764  -1.633
    1LIG   HC28   69  -1.456   0.924  -1.557
    1LIG   HC29   70  -2.031   0.356  -1.308
    1LIG   HC30   71  -2.116   0.265  -1.434
    1LIG   HC31   72  -2.181   0.421  -1.378
   0.00000   0.00000   0.00000
