; Created by cgenff_charmm2gmx.py

[ moleculetype ]
; Name			   nrexcl
LIG				 3

[ atoms ]
;	 nr		  type	resnr residue  atom   cgnr	   charge		mass  typeB    chargeB		massB
; residue	 1 LIG rtp LIG q	qsum
     1      CG2O1      1    LIG     C1      1      0.302     12.011   ;
     2      OG2D1      1    LIG     O1      2     -0.463     15.999   ;
     3      NG2S1      1    LIG     N1      3     -0.226     14.007   ;
     4       HGP1      1    LIG     H1      4      0.262      1.008   ;
     5     CG2R61      1    LIG     C2      5     -0.100     12.011   ;
     6     CG2R61      1    LIG     C3      6     -0.068     12.011   ;
     7     CG2R61      1    LIG     C4      7      0.064     12.011   ;
     8     CG2R61      1    LIG     C5      8     -0.006     12.011   ;
     9     CG2R61      1    LIG     C6      9      0.122     12.011   ;
    10      CG321      1    LIG     C7     10     -0.173     12.011   ;
    11      NG301      1    LIG     N2     11     -0.292     14.007   ;
    12     CG2R61      1    LIG     C8     12     -0.060     12.011   ;
    13      SG3O2      1    LIG      S     13      0.440     32.060   ;
    14      CG331      1    LIG     C9     14     -0.055     12.011   ;
    15      OG2P1      1    LIG     O2     15     -0.374     15.999   ;
    16      OG2P1      1    LIG     O3     16     -0.374     15.999   ;
    17      CG321      1    LIG    C10     17      0.049     12.011   ;
    18      CG321      1    LIG    C11     18     -0.158     12.011   ;
    19      NG311      1    LIG     N3     19     -0.509     14.007   ;
    20     HGPAM1      1    LIG     H2     20      0.367      1.008   ;
    21      CG321      1    LIG    C12     21     -0.120     12.011   ;
    22      CG331      1    LIG    C13     22     -0.236     12.011   ;
    23      CG311      1    LIG    C14     23      0.010     12.011   ;
    24      CG321      1    LIG    C15     24     -0.111     12.011   ;
    25     CG2R61      1    LIG    C16     25     -0.019     12.011   ;
    26     CG2R61      1    LIG    C17     26     -0.123     12.011   ;
    27     CG2R61      1    LIG    C18     27     -0.112     12.011   ;
    28     CG2R61      1    LIG    C19     28     -0.116     12.011   ;
    29     CG2R61      1    LIG    C20     29     -0.112     12.011   ;
    30     CG2R61      1    LIG    C21     30     -0.123     12.011   ;
    31      CG311      1    LIG    C22     31      0.093     12.011   ;
    32      CG324      1    LIG    C23     32      0.183     12.011   ;
    33      NG3P2      1    LIG     N4     33     -0.409     14.007   ;
    34       HGP2      1    LIG     H3     34      0.335      1.008   ;
    35       HGP2      1    LIG     H4     35      0.335      1.008   ;
    36     CG3C31      1    LIG    C24     36      0.283     12.011   ;
    37     CG3C31      1    LIG    C25     37     -0.179     12.011   ;
    38     CG3C31      1    LIG    C26     38     -0.179     12.011   ;
    39      OG311      1    LIG     O4     39     -0.625     15.999   ;
    40       HGP1      1    LIG     H5     40      0.415      1.008   ;
    41      HGR61      1    LIG     HC     41      0.116      1.008   ;
    42       HGA2      1    LIG    HC2     42      0.090      1.008   ;
    43       HGA2      1    LIG    HC3     43      0.090      1.008   ;
    44      HGR61      1    LIG    HC1     44      0.116      1.008   ;
    45       HGA2      1    LIG    HC4     45      0.090      1.008   ;
    46       HGA2      1    LIG    HC5     46      0.090      1.008   ;
    47       HGA2      1    LIG    HC6     47      0.090      1.008   ;
    48       HGA2      1    LIG    HC7     48      0.090      1.008   ;
    49       HGA2      1    LIG    HC8     49      0.090      1.008   ;
    50       HGA2      1    LIG    HC9     50      0.090      1.008   ;
    51       HGA1      1    LIG   HC10     51      0.090      1.008   ;
    52       HGA2      1    LIG   HC11     52      0.090      1.008   ;
    53       HGA2      1    LIG   HC12     53      0.090      1.008   ;
    54      HGR61      1    LIG   HC13     54      0.116      1.008   ;
    55      HGR61      1    LIG   HC14     55      0.116      1.008   ;
    56      HGR61      1    LIG   HC15     56      0.116      1.008   ;
    57      HGR61      1    LIG   HC16     57      0.116      1.008   ;
    58      HGR61      1    LIG   HC17     58      0.116      1.008   ;
    59       HGA1      1    LIG   HC18     59      0.090      1.008   ;
    60       HGA2      1    LIG   HC19     60      0.090      1.008   ;
    61       HGA2      1    LIG   HC20     61      0.090      1.008   ;
    62       HGA1      1    LIG   HC21     62      0.090      1.008   ;
    63       HGA2      1    LIG   HC22     63      0.090      1.008   ;
    64       HGA2      1    LIG   HC23     64      0.090      1.008   ;
    65       HGA2      1    LIG   HC24     65      0.090      1.008   ;
    66       HGA2      1    LIG   HC25     66      0.090      1.008   ;
    67       HGA3      1    LIG   HC26     67      0.090      1.008   ;
    68       HGA3      1    LIG   HC27     68      0.090      1.008   ;
    69       HGA3      1    LIG   HC28     69      0.090      1.008   ;
    70       HGA3      1    LIG   HC29     70      0.090      1.008   ;
    71       HGA3      1    LIG   HC30     71      0.090      1.008   ;
    72       HGA3      1    LIG   HC31     72      0.090      1.008   ;

[ bonds ]
;	ai	  aj funct			  c0			c1			  c2			c3
    1     3	 1 ;       CG2O1      NG2S1
    1     2	 1 ;       CG2O1      OG2D1
    1     5	 1 ;       CG2O1     CG2R61
    3    23	 1 ;       NG2S1      CG311
    3     4	 1 ;       NG2S1       HGP1
    5     6	 1 ;      CG2R61     CG2R61
    5    12	 1 ;      CG2R61     CG2R61
    6     7	 1 ;      CG2R61     CG2R61
    6    41	 1 ;      CG2R61      HGR61
    7    19	 1 ;      CG2R61      NG311
    7     8	 1 ;      CG2R61     CG2R61
    8     9	 1 ;      CG2R61     CG2R61
    8    10	 1 ;      CG2R61      CG321
    9    12	 1 ;      CG2R61     CG2R61
    9    11	 1 ;      CG2R61      NG301
   10    18	 1 ;       CG321      CG321
   10    42	 1 ;       CG321       HGA2
   10    43	 1 ;       CG321       HGA2
   11    13	 1 ;       NG301      SG3O2
   11    14	 1 ;       NG301      CG331
   12    44	 1 ;      CG2R61      HGR61
   13    16	 1 ;       SG3O2      OG2P1
   13    15	 1 ;       SG3O2      OG2P1
   13    17	 1 ;       SG3O2      CG321
   14    70	 1 ;       CG331       HGA3
   14    71	 1 ;       CG331       HGA3
   14    72	 1 ;       CG331       HGA3
   17    18	 1 ;       CG321      CG321
   17    45	 1 ;       CG321       HGA2
   17    46	 1 ;       CG321       HGA2
   18    47	 1 ;       CG321       HGA2
   18    48	 1 ;       CG321       HGA2
   19    21	 1 ;       NG311      CG321
   19    20	 1 ;       NG311     HGPAM1
   21    22	 1 ;       CG321      CG331
   21    49	 1 ;       CG321       HGA2
   21    50	 1 ;       CG321       HGA2
   22    67	 1 ;       CG331       HGA3
   22    68	 1 ;       CG331       HGA3
   22    69	 1 ;       CG331       HGA3
   23    31	 1 ;       CG311      CG311
   23    24	 1 ;       CG311      CG321
   23    51	 1 ;       CG311       HGA1
   24    25	 1 ;       CG321     CG2R61
   24    52	 1 ;       CG321       HGA2
   24    53	 1 ;       CG321       HGA2
   25    30	 1 ;      CG2R61     CG2R61
   25    26	 1 ;      CG2R61     CG2R61
   26    27	 1 ;      CG2R61     CG2R61
   26    54	 1 ;      CG2R61      HGR61
   27    28	 1 ;      CG2R61     CG2R61
   27    55	 1 ;      CG2R61      HGR61
   28    29	 1 ;      CG2R61     CG2R61
   28    56	 1 ;      CG2R61      HGR61
   29    30	 1 ;      CG2R61     CG2R61
   29    57	 1 ;      CG2R61      HGR61
   30    58	 1 ;      CG2R61      HGR61
   31    39	 1 ;       CG311      OG311
   31    32	 1 ;       CG311      CG324
   31    59	 1 ;       CG311       HGA1
   32    33	 1 ;       CG324      NG3P2
   32    60	 1 ;       CG324       HGA2
   32    61	 1 ;       CG324       HGA2
   33    35	 1 ;       NG3P2       HGP2
   33    34	 1 ;       NG3P2       HGP2
   33    36	 1 ;       NG3P2     CG3C31
   36    37	 1 ;      CG3C31     CG3C31
   36    38	 1 ;      CG3C31     CG3C31
   36    62	 1 ;      CG3C31       HGA1
   37    38	 1 ;      CG3C31     CG3C31
   37    63	 1 ;      CG3C31       HGA2
   37    64	 1 ;      CG3C31       HGA2
   38    65	 1 ;      CG3C31       HGA2
   38    66	 1 ;      CG3C31       HGA2
   39    40	 1 ;       OG311       HGP1

[ pairs ]
;	ai	  aj funct			  c0			c1			  c2			c3
    1    31	 1
    1    24	 1
    1    51	 1
    1     7	 1
    1    41	 1
    1     9	 1
    1    44	 1
    2    23	 1
    2     4	 1
    2     6	 1
    2    12	 1
    3     6	 1
    3    12	 1
    3    39	 1
    3    32	 1
    3    59	 1
    3    25	 1
    3    52	 1
    3    53	 1
    4     5	 1
    4    31	 1
    4    24	 1
    4    51	 1
    5    23	 1
    5    19	 1
    5     8	 1
    5    11	 1
    6     9	 1
    6    44	 1
    6    21	 1
    6    20	 1
    6    10	 1
    7    12	 1
    7    11	 1
    7    18	 1
    7    42	 1
    7    43	 1
    7    22	 1
    7    49	 1
    7    50	 1
    8    41	 1
    8    21	 1
    8    20	 1
    8    44	 1
    8    13	 1
    8    14	 1
    8    17	 1
    8    47	 1
    8    48	 1
    9    19	 1
    9    18	 1
    9    42	 1
    9    43	 1
    9    16	 1
    9    15	 1
    9    17	 1
    9    70	 1
    9    71	 1
    9    72	 1
   10    19	 1
   10    12	 1
   10    11	 1
   10    13	 1
   10    45	 1
   10    46	 1
   11    44	 1
   11    18	 1
   11    45	 1
   11    46	 1
   12    41	 1
   12    13	 1
   12    14	 1
   13    70	 1
   13    71	 1
   13    72	 1
   13    47	 1
   13    48	 1
   14    16	 1
   14    15	 1
   14    17	 1
   15    18	 1
   15    45	 1
   15    46	 1
   16    18	 1
   16    45	 1
   16    46	 1
   17    42	 1
   17    43	 1
   19    41	 1
   19    67	 1
   19    68	 1
   19    69	 1
   20    22	 1
   20    49	 1
   20    50	 1
   23    30	 1
   23    26	 1
   23    40	 1
   23    33	 1
   23    60	 1
   23    61	 1
   24    39	 1
   24    32	 1
   24    59	 1
   24    29	 1
   24    58	 1
   24    27	 1
   24    54	 1
   25    31	 1
   25    51	 1
   25    28	 1
   25    55	 1
   25    57	 1
   26    52	 1
   26    53	 1
   26    29	 1
   26    58	 1
   26    56	 1
   27    30	 1
   27    57	 1
   28    54	 1
   28    58	 1
   29    55	 1
   30    52	 1
   30    53	 1
   30    54	 1
   30    56	 1
   31    52	 1
   31    53	 1
   31    35	 1
   31    34	 1
   31    36	 1
   32    51	 1
   32    40	 1
   32    37	 1
   32    38	 1
   32    62	 1
   33    39	 1
   33    59	 1
   33    63	 1
   33    64	 1
   33    65	 1
   33    66	 1
   34    60	 1
   34    61	 1
   34    37	 1
   34    38	 1
   34    62	 1
   35    60	 1
   35    61	 1
   35    37	 1
   35    38	 1
   35    62	 1
   36    60	 1
   36    61	 1
   39    51	 1
   39    60	 1
   39    61	 1
   40    59	 1
   42    47	 1
   42    48	 1
   43    47	 1
   43    48	 1
   45    47	 1
   45    48	 1
   46    47	 1
   46    48	 1
   49    67	 1
   49    68	 1
   49    69	 1
   50    67	 1
   50    68	 1
   50    69	 1
   51    59	 1
   51    52	 1
   51    53	 1
   54    55	 1
   55    56	 1
   56    57	 1
   57    58	 1
   59    60	 1
   59    61	 1
   62    63	 1
   62    64	 1
   62    65	 1
   62    66	 1
   63    65	 1
   63    66	 1
   64    65	 1
   64    66	 1

[ angles ]
;	ai	  aj	ak funct			c0			  c1			c2			  c3
    3     1     2	5 ;      NG2S1      CG2O1      OG2D1
    3     1     5	5 ;      NG2S1      CG2O1     CG2R61
    2     1     5	5 ;      OG2D1      CG2O1     CG2R61
   23     3     4	5 ;      CG311      NG2S1       HGP1
   23     3     1	5 ;      CG311      NG2S1      CG2O1
    4     3     1	5 ;       HGP1      NG2S1      CG2O1
    1     5     6	5 ;      CG2O1     CG2R61     CG2R61
    1     5    12	5 ;      CG2O1     CG2R61     CG2R61
    6     5    12	5 ;     CG2R61     CG2R61     CG2R61
    5     6     7	5 ;     CG2R61     CG2R61     CG2R61
    5     6    41	5 ;     CG2R61     CG2R61      HGR61
    7     6    41	5 ;     CG2R61     CG2R61      HGR61
    6     7    19	5 ;     CG2R61     CG2R61      NG311
    6     7     8	5 ;     CG2R61     CG2R61     CG2R61
   19     7     8	5 ;      NG311     CG2R61     CG2R61
    7     8     9	5 ;     CG2R61     CG2R61     CG2R61
    7     8    10	5 ;     CG2R61     CG2R61      CG321
    9     8    10	5 ;     CG2R61     CG2R61      CG321
   12     9     8	5 ;     CG2R61     CG2R61     CG2R61
   12     9    11	5 ;     CG2R61     CG2R61      NG301
    8     9    11	5 ;     CG2R61     CG2R61      NG301
    8    10    18	5 ;     CG2R61      CG321      CG321
    8    10    42	5 ;     CG2R61      CG321       HGA2
    8    10    43	5 ;     CG2R61      CG321       HGA2
   18    10    42	5 ;      CG321      CG321       HGA2
   18    10    43	5 ;      CG321      CG321       HGA2
   42    10    43	5 ;       HGA2      CG321       HGA2
    9    11    13	5 ;     CG2R61      NG301      SG3O2
    9    11    14	5 ;     CG2R61      NG301      CG331
   13    11    14	5 ;      SG3O2      NG301      CG331
    5    12     9	5 ;     CG2R61     CG2R61     CG2R61
    5    12    44	5 ;     CG2R61     CG2R61      HGR61
    9    12    44	5 ;     CG2R61     CG2R61      HGR61
   16    13    11	5 ;      OG2P1      SG3O2      NG301
   16    13    15	5 ;      OG2P1      SG3O2      OG2P1
   16    13    17	5 ;      OG2P1      SG3O2      CG321
   11    13    15	5 ;      NG301      SG3O2      OG2P1
   11    13    17	5 ;      NG301      SG3O2      CG321
   15    13    17	5 ;      OG2P1      SG3O2      CG321
   11    14    70	5 ;      NG301      CG331       HGA3
   11    14    71	5 ;      NG301      CG331       HGA3
   11    14    72	5 ;      NG301      CG331       HGA3
   70    14    71	5 ;       HGA3      CG331       HGA3
   70    14    72	5 ;       HGA3      CG331       HGA3
   71    14    72	5 ;       HGA3      CG331       HGA3
   13    17    18	5 ;      SG3O2      CG321      CG321
   13    17    45	5 ;      SG3O2      CG321       HGA2
   13    17    46	5 ;      SG3O2      CG321       HGA2
   18    17    45	5 ;      CG321      CG321       HGA2
   18    17    46	5 ;      CG321      CG321       HGA2
   45    17    46	5 ;       HGA2      CG321       HGA2
   10    18    17	5 ;      CG321      CG321      CG321
   10    18    47	5 ;      CG321      CG321       HGA2
   10    18    48	5 ;      CG321      CG321       HGA2
   17    18    47	5 ;      CG321      CG321       HGA2
   17    18    48	5 ;      CG321      CG321       HGA2
   47    18    48	5 ;       HGA2      CG321       HGA2
   21    19    20	5 ;      CG321      NG311     HGPAM1
   21    19     7	5 ;      CG321      NG311     CG2R61
   20    19     7	5 ;     HGPAM1      NG311     CG2R61
   22    21    19	5 ;      CG331      CG321      NG311
   22    21    49	5 ;      CG331      CG321       HGA2
   22    21    50	5 ;      CG331      CG321       HGA2
   19    21    49	5 ;      NG311      CG321       HGA2
   19    21    50	5 ;      NG311      CG321       HGA2
   49    21    50	5 ;       HGA2      CG321       HGA2
   21    22    67	5 ;      CG321      CG331       HGA3
   21    22    68	5 ;      CG321      CG331       HGA3
   21    22    69	5 ;      CG321      CG331       HGA3
   67    22    68	5 ;       HGA3      CG331       HGA3
   67    22    69	5 ;       HGA3      CG331       HGA3
   68    22    69	5 ;       HGA3      CG331       HGA3
   31    23    24	5 ;      CG311      CG311      CG321
   31    23     3	5 ;      CG311      CG311      NG2S1
   31    23    51	5 ;      CG311      CG311       HGA1
   24    23     3	5 ;      CG321      CG311      NG2S1
   24    23    51	5 ;      CG321      CG311       HGA1
    3    23    51	5 ;      NG2S1      CG311       HGA1
   23    24    25	5 ;      CG311      CG321     CG2R61
   23    24    52	5 ;      CG311      CG321       HGA2
   23    24    53	5 ;      CG311      CG321       HGA2
   25    24    52	5 ;     CG2R61      CG321       HGA2
   25    24    53	5 ;     CG2R61      CG321       HGA2
   52    24    53	5 ;       HGA2      CG321       HGA2
   24    25    30	5 ;      CG321     CG2R61     CG2R61
   24    25    26	5 ;      CG321     CG2R61     CG2R61
   30    25    26	5 ;     CG2R61     CG2R61     CG2R61
   25    26    27	5 ;     CG2R61     CG2R61     CG2R61
   25    26    54	5 ;     CG2R61     CG2R61      HGR61
   27    26    54	5 ;     CG2R61     CG2R61      HGR61
   26    27    28	5 ;     CG2R61     CG2R61     CG2R61
   26    27    55	5 ;     CG2R61     CG2R61      HGR61
   28    27    55	5 ;     CG2R61     CG2R61      HGR61
   29    28    27	5 ;     CG2R61     CG2R61     CG2R61
   29    28    56	5 ;     CG2R61     CG2R61      HGR61
   27    28    56	5 ;     CG2R61     CG2R61      HGR61
   30    29    28	5 ;     CG2R61     CG2R61     CG2R61
   30    29    57	5 ;     CG2R61     CG2R61      HGR61
   28    29    57	5 ;     CG2R61     CG2R61      HGR61
   25    30    29	5 ;     CG2R61     CG2R61     CG2R61
   25    30    58	5 ;     CG2R61     CG2R61      HGR61
   29    30    58	5 ;     CG2R61     CG2R61      HGR61
   39    31    32	5 ;      OG311      CG311      CG324
   39    31    23	5 ;      OG311      CG311      CG311
   39    31    59	5 ;      OG311      CG311       HGA1
   32    31    23	5 ;      CG324      CG311      CG311
   32    31    59	5 ;      CG324      CG311       HGA1
   23    31    59	5 ;      CG311      CG311       HGA1
   33    32    31	5 ;      NG3P2      CG324      CG311
   33    32    60	5 ;      NG3P2      CG324       HGA2
   33    32    61	5 ;      NG3P2      CG324       HGA2
   31    32    60	5 ;      CG311      CG324       HGA2
   31    32    61	5 ;      CG311      CG324       HGA2
   60    32    61	5 ;       HGA2      CG324       HGA2
   35    33    34	5 ;       HGP2      NG3P2       HGP2
   35    33    32	5 ;       HGP2      NG3P2      CG324
   35    33    36	5 ;       HGP2      NG3P2     CG3C31
   34    33    32	5 ;       HGP2      NG3P2      CG324
   34    33    36	5 ;       HGP2      NG3P2     CG3C31
   32    33    36	5 ;      CG324      NG3P2     CG3C31
   33    36    37	5 ;      NG3P2     CG3C31     CG3C31
   33    36    38	5 ;      NG3P2     CG3C31     CG3C31
   33    36    62	5 ;      NG3P2     CG3C31       HGA1
   37    36    38	5 ;     CG3C31     CG3C31     CG3C31
   37    36    62	5 ;     CG3C31     CG3C31       HGA1
   38    36    62	5 ;     CG3C31     CG3C31       HGA1
   36    37    38	5 ;     CG3C31     CG3C31     CG3C31
   36    37    63	5 ;     CG3C31     CG3C31       HGA2
   36    37    64	5 ;     CG3C31     CG3C31       HGA2
   38    37    63	5 ;     CG3C31     CG3C31       HGA2
   38    37    64	5 ;     CG3C31     CG3C31       HGA2
   63    37    64	5 ;       HGA2     CG3C31       HGA2
   36    38    37	5 ;     CG3C31     CG3C31     CG3C31
   36    38    65	5 ;     CG3C31     CG3C31       HGA2
   36    38    66	5 ;     CG3C31     CG3C31       HGA2
   37    38    65	5 ;     CG3C31     CG3C31       HGA2
   37    38    66	5 ;     CG3C31     CG3C31       HGA2
   65    38    66	5 ;       HGA2     CG3C31       HGA2
   40    39    31	5 ;       HGP1      OG311      CG311

[ dihedrals ]
;	ai	  aj	ak	  al funct			  c0			c1			  c2			c3			  c4			c5
    2     1     3    23	 9 ;      OG2D1      CG2O1      NG2S1      CG311
    2     1     3     4	 9 ;      OG2D1      CG2O1      NG2S1       HGP1
    5     1     3    23	 9 ;     CG2R61      CG2O1      NG2S1      CG311
    5     1     3     4	 9 ;     CG2R61      CG2O1      NG2S1       HGP1
    3     1     5     6	 9 ;      NG2S1      CG2O1     CG2R61     CG2R61
    3     1     5    12	 9 ;      NG2S1      CG2O1     CG2R61     CG2R61
    2     1     5     6	 9 ;      OG2D1      CG2O1     CG2R61     CG2R61
    2     1     5    12	 9 ;      OG2D1      CG2O1     CG2R61     CG2R61
    4     3    23    31	 9 ;       HGP1      NG2S1      CG311      CG311
    4     3    23    24	 9 ;       HGP1      NG2S1      CG311      CG321
    4     3    23    51	 9 ;       HGP1      NG2S1      CG311       HGA1
    1     3    23    31	 9 ;      CG2O1      NG2S1      CG311      CG311
    1     3    23    24	 9 ;      CG2O1      NG2S1      CG311      CG321
    1     3    23    51	 9 ;      CG2O1      NG2S1      CG311       HGA1
    1     5     6     7	 9 ;      CG2O1     CG2R61     CG2R61     CG2R61
    1     5     6    41	 9 ;      CG2O1     CG2R61     CG2R61      HGR61
   12     5     6     7	 9 ;     CG2R61     CG2R61     CG2R61     CG2R61
   12     5     6    41	 9 ;     CG2R61     CG2R61     CG2R61      HGR61
    1     5    12     9	 9 ;      CG2O1     CG2R61     CG2R61     CG2R61
    1     5    12    44	 9 ;      CG2O1     CG2R61     CG2R61      HGR61
    6     5    12     9	 9 ;     CG2R61     CG2R61     CG2R61     CG2R61
    6     5    12    44	 9 ;     CG2R61     CG2R61     CG2R61      HGR61
    5     6     7    19	 9 ;     CG2R61     CG2R61     CG2R61      NG311
    5     6     7     8	 9 ;     CG2R61     CG2R61     CG2R61     CG2R61
   41     6     7    19	 9 ;      HGR61     CG2R61     CG2R61      NG311
   41     6     7     8	 9 ;      HGR61     CG2R61     CG2R61     CG2R61
    6     7    19    21	 9 ;     CG2R61     CG2R61      NG311      CG321
    6     7    19    20	 9 ;     CG2R61     CG2R61      NG311     HGPAM1
    8     7    19    21	 9 ;     CG2R61     CG2R61      NG311      CG321
    8     7    19    20	 9 ;     CG2R61     CG2R61      NG311     HGPAM1
    6     7     8     9	 9 ;     CG2R61     CG2R61     CG2R61     CG2R61
    6     7     8    10	 9 ;     CG2R61     CG2R61     CG2R61      CG321
   19     7     8     9	 9 ;      NG311     CG2R61     CG2R61     CG2R61
   19     7     8    10	 9 ;      NG311     CG2R61     CG2R61      CG321
    7     8     9    12	 9 ;     CG2R61     CG2R61     CG2R61     CG2R61
    7     8     9    11	 9 ;     CG2R61     CG2R61     CG2R61      NG301
   10     8     9    12	 9 ;      CG321     CG2R61     CG2R61     CG2R61
   10     8     9    11	 9 ;      CG321     CG2R61     CG2R61      NG301
    7     8    10    18	 9 ;     CG2R61     CG2R61      CG321      CG321
    7     8    10    42	 9 ;     CG2R61     CG2R61      CG321       HGA2
    7     8    10    43	 9 ;     CG2R61     CG2R61      CG321       HGA2
    9     8    10    18	 9 ;     CG2R61     CG2R61      CG321      CG321
    9     8    10    42	 9 ;     CG2R61     CG2R61      CG321       HGA2
    9     8    10    43	 9 ;     CG2R61     CG2R61      CG321       HGA2
    8     9    12     5	 9 ;     CG2R61     CG2R61     CG2R61     CG2R61
    8     9    12    44	 9 ;     CG2R61     CG2R61     CG2R61      HGR61
   11     9    12     5	 9 ;      NG301     CG2R61     CG2R61     CG2R61
   11     9    12    44	 9 ;      NG301     CG2R61     CG2R61      HGR61
   12     9    11    13	 9 ;     CG2R61     CG2R61      NG301      SG3O2
   12     9    11    14	 9 ;     CG2R61     CG2R61      NG301      CG331
    8     9    11    13	 9 ;     CG2R61     CG2R61      NG301      SG3O2
    8     9    11    14	 9 ;     CG2R61     CG2R61      NG301      CG331
    8    10    18    17	 9 ;     CG2R61      CG321      CG321      CG321
    8    10    18    47	 9 ;     CG2R61      CG321      CG321       HGA2
    8    10    18    48	 9 ;     CG2R61      CG321      CG321       HGA2
   42    10    18    17	 9 ;       HGA2      CG321      CG321      CG321
   42    10    18    47	 9 ;       HGA2      CG321      CG321       HGA2
   42    10    18    48	 9 ;       HGA2      CG321      CG321       HGA2
   43    10    18    17	 9 ;       HGA2      CG321      CG321      CG321
   43    10    18    47	 9 ;       HGA2      CG321      CG321       HGA2
   43    10    18    48	 9 ;       HGA2      CG321      CG321       HGA2
    9    11    13    16	 9 ;     CG2R61      NG301      SG3O2      OG2P1
    9    11    13    15	 9 ;     CG2R61      NG301      SG3O2      OG2P1
    9    11    13    17	 9 ;     CG2R61      NG301      SG3O2      CG321
   14    11    13    16	 9 ;      CG331      NG301      SG3O2      OG2P1
   14    11    13    15	 9 ;      CG331      NG301      SG3O2      OG2P1
   14    11    13    17	 9 ;      CG331      NG301      SG3O2      CG321
    9    11    14    70	 9 ;     CG2R61      NG301      CG331       HGA3
    9    11    14    71	 9 ;     CG2R61      NG301      CG331       HGA3
    9    11    14    72	 9 ;     CG2R61      NG301      CG331       HGA3
   13    11    14    70	 9 ;      SG3O2      NG301      CG331       HGA3
   13    11    14    71	 9 ;      SG3O2      NG301      CG331       HGA3
   13    11    14    72	 9 ;      SG3O2      NG301      CG331       HGA3
   16    13    17    18	 9 ;      OG2P1      SG3O2      CG321      CG321
   16    13    17    45	 9 ;      OG2P1      SG3O2      CG321       HGA2
   16    13    17    46	 9 ;      OG2P1      SG3O2      CG321       HGA2
   11    13    17    18	 9 ;      NG301      SG3O2      CG321      CG321
   11    13    17    45	 9 ;      NG301      SG3O2      CG321       HGA2
   11    13    17    46	 9 ;      NG301      SG3O2      CG321       HGA2
   15    13    17    18	 9 ;      OG2P1      SG3O2      CG321      CG321
   15    13    17    45	 9 ;      OG2P1      SG3O2      CG321       HGA2
   15    13    17    46	 9 ;      OG2P1      SG3O2      CG321       HGA2
   13    17    18    10	 9 ;      SG3O2      CG321      CG321      CG321
   13    17    18    47	 9 ;      SG3O2      CG321      CG321       HGA2
   13    17    18    48	 9 ;      SG3O2      CG321      CG321       HGA2
   45    17    18    10	 9 ;       HGA2      CG321      CG321      CG321
   45    17    18    47	 9 ;       HGA2      CG321      CG321       HGA2
   45    17    18    48	 9 ;       HGA2      CG321      CG321       HGA2
   46    17    18    10	 9 ;       HGA2      CG321      CG321      CG321
   46    17    18    47	 9 ;       HGA2      CG321      CG321       HGA2
   46    17    18    48	 9 ;       HGA2      CG321      CG321       HGA2
   20    19    21    22	 9 ;     HGPAM1      NG311      CG321      CG331
   20    19    21    49	 9 ;     HGPAM1      NG311      CG321       HGA2
   20    19    21    50	 9 ;     HGPAM1      NG311      CG321       HGA2
    7    19    21    22	 9 ;     CG2R61      NG311      CG321      CG331
    7    19    21    49	 9 ;     CG2R61      NG311      CG321       HGA2
    7    19    21    50	 9 ;     CG2R61      NG311      CG321       HGA2
   19    21    22    67	 9 ;      NG311      CG321      CG331       HGA3
   19    21    22    68	 9 ;      NG311      CG321      CG331       HGA3
   19    21    22    69	 9 ;      NG311      CG321      CG331       HGA3
   49    21    22    67	 9 ;       HGA2      CG321      CG331       HGA3
   49    21    22    68	 9 ;       HGA2      CG321      CG331       HGA3
   49    21    22    69	 9 ;       HGA2      CG321      CG331       HGA3
   50    21    22    67	 9 ;       HGA2      CG321      CG331       HGA3
   50    21    22    68	 9 ;       HGA2      CG321      CG331       HGA3
   50    21    22    69	 9 ;       HGA2      CG321      CG331       HGA3
   24    23    31    39	 9 ;      CG321      CG311      CG311      OG311
   24    23    31    32	 9 ;      CG321      CG311      CG311      CG324
   24    23    31    59	 9 ;      CG321      CG311      CG311       HGA1
    3    23    31    39	 9 ;      NG2S1      CG311      CG311      OG311
    3    23    31    32	 9 ;      NG2S1      CG311      CG311      CG324
    3    23    31    59	 9 ;      NG2S1      CG311      CG311       HGA1
   51    23    31    39	 9 ;       HGA1      CG311      CG311      OG311
   51    23    31    32	 9 ;       HGA1      CG311      CG311      CG324
   51    23    31    59	 9 ;       HGA1      CG311      CG311       HGA1
   31    23    24    25	 9 ;      CG311      CG311      CG321     CG2R61
   31    23    24    52	 9 ;      CG311      CG311      CG321       HGA2
   31    23    24    53	 9 ;      CG311      CG311      CG321       HGA2
    3    23    24    25	 9 ;      NG2S1      CG311      CG321     CG2R61
    3    23    24    52	 9 ;      NG2S1      CG311      CG321       HGA2
    3    23    24    53	 9 ;      NG2S1      CG311      CG321       HGA2
   51    23    24    25	 9 ;       HGA1      CG311      CG321     CG2R61
   51    23    24    52	 9 ;       HGA1      CG311      CG321       HGA2
   51    23    24    53	 9 ;       HGA1      CG311      CG321       HGA2
   23    24    25    30	 9 ;      CG311      CG321     CG2R61     CG2R61
   23    24    25    26	 9 ;      CG311      CG321     CG2R61     CG2R61
   52    24    25    30	 9 ;       HGA2      CG321     CG2R61     CG2R61
   52    24    25    26	 9 ;       HGA2      CG321     CG2R61     CG2R61
   53    24    25    30	 9 ;       HGA2      CG321     CG2R61     CG2R61
   53    24    25    26	 9 ;       HGA2      CG321     CG2R61     CG2R61
   24    25    30    29	 9 ;      CG321     CG2R61     CG2R61     CG2R61
   24    25    30    58	 9 ;      CG321     CG2R61     CG2R61      HGR61
   26    25    30    29	 9 ;     CG2R61     CG2R61     CG2R61     CG2R61
   26    25    30    58	 9 ;     CG2R61     CG2R61     CG2R61      HGR61
   24    25    26    27	 9 ;      CG321     CG2R61     CG2R61     CG2R61
   24    25    26    54	 9 ;      CG321     CG2R61     CG2R61      HGR61
   30    25    26    27	 9 ;     CG2R61     CG2R61     CG2R61     CG2R61
   30    25    26    54	 9 ;     CG2R61     CG2R61     CG2R61      HGR61
   25    26    27    28	 9 ;     CG2R61     CG2R61     CG2R61     CG2R61
   25    26    27    55	 9 ;     CG2R61     CG2R61     CG2R61      HGR61
   54    26    27    28	 9 ;      HGR61     CG2R61     CG2R61     CG2R61
   54    26    27    55	 9 ;      HGR61     CG2R61     CG2R61      HGR61
   26    27    28    29	 9 ;     CG2R61     CG2R61     CG2R61     CG2R61
   26    27    28    56	 9 ;     CG2R61     CG2R61     CG2R61      HGR61
   55    27    28    29	 9 ;      HGR61     CG2R61     CG2R61     CG2R61
   55    27    28    56	 9 ;      HGR61     CG2R61     CG2R61      HGR61
   27    28    29    30	 9 ;     CG2R61     CG2R61     CG2R61     CG2R61
   27    28    29    57	 9 ;     CG2R61     CG2R61     CG2R61      HGR61
   56    28    29    30	 9 ;      HGR61     CG2R61     CG2R61     CG2R61
   56    28    29    57	 9 ;      HGR61     CG2R61     CG2R61      HGR61
   28    29    30    25	 9 ;     CG2R61     CG2R61     CG2R61     CG2R61
   28    29    30    58	 9 ;     CG2R61     CG2R61     CG2R61      HGR61
   57    29    30    25	 9 ;      HGR61     CG2R61     CG2R61     CG2R61
   57    29    30    58	 9 ;      HGR61     CG2R61     CG2R61      HGR61
   32    31    39    40	 9 ;      CG324      CG311      OG311       HGP1
   23    31    39    40	 9 ;      CG311      CG311      OG311       HGP1
   59    31    39    40	 9 ;       HGA1      CG311      OG311       HGP1
   39    31    32    33	 9 ;      OG311      CG311      CG324      NG3P2
   39    31    32    60	 9 ;      OG311      CG311      CG324       HGA2
   39    31    32    61	 9 ;      OG311      CG311      CG324       HGA2
   23    31    32    33	 9 ;      CG311      CG311      CG324      NG3P2
   23    31    32    60	 9 ;      CG311      CG311      CG324       HGA2
   23    31    32    61	 9 ;      CG311      CG311      CG324       HGA2
   59    31    32    33	 9 ;       HGA1      CG311      CG324      NG3P2
   59    31    32    60	 9 ;       HGA1      CG311      CG324       HGA2
   59    31    32    61	 9 ;       HGA1      CG311      CG324       HGA2
   31    32    33    35	 9 ;      CG311      CG324      NG3P2       HGP2
   31    32    33    34	 9 ;      CG311      CG324      NG3P2       HGP2
   31    32    33    36	 9 ;      CG311      CG324      NG3P2     CG3C31
   60    32    33    35	 9 ;       HGA2      CG324      NG3P2       HGP2
   60    32    33    34	 9 ;       HGA2      CG324      NG3P2       HGP2
   60    32    33    36	 9 ;       HGA2      CG324      NG3P2     CG3C31
   61    32    33    35	 9 ;       HGA2      CG324      NG3P2       HGP2
   61    32    33    34	 9 ;       HGA2      CG324      NG3P2       HGP2
   61    32    33    36	 9 ;       HGA2      CG324      NG3P2     CG3C31
   35    33    36    37	 9 ;       HGP2      NG3P2     CG3C31     CG3C31
   35    33    36    38	 9 ;       HGP2      NG3P2     CG3C31     CG3C31
   35    33    36    62	 9 ;       HGP2      NG3P2     CG3C31       HGA1
   34    33    36    37	 9 ;       HGP2      NG3P2     CG3C31     CG3C31
   34    33    36    38	 9 ;       HGP2      NG3P2     CG3C31     CG3C31
   34    33    36    62	 9 ;       HGP2      NG3P2     CG3C31       HGA1
   32    33    36    37	 9 ;      CG324      NG3P2     CG3C31     CG3C31
   32    33    36    38	 9 ;      CG324      NG3P2     CG3C31     CG3C31
   32    33    36    62	 9 ;      CG324      NG3P2     CG3C31       HGA1
   33    36    37    38	 9 ;      NG3P2     CG3C31     CG3C31     CG3C31
   33    36    37    63	 9 ;      NG3P2     CG3C31     CG3C31       HGA2
   33    36    37    64	 9 ;      NG3P2     CG3C31     CG3C31       HGA2
   38    36    37    63	 9 ;     CG3C31     CG3C31     CG3C31       HGA2
   38    36    37    64	 9 ;     CG3C31     CG3C31     CG3C31       HGA2
   62    36    37    38	 9 ;       HGA1     CG3C31     CG3C31     CG3C31
   62    36    37    63	 9 ;       HGA1     CG3C31     CG3C31       HGA2
   62    36    37    64	 9 ;       HGA1     CG3C31     CG3C31       HGA2
   33    36    38    37	 9 ;      NG3P2     CG3C31     CG3C31     CG3C31
   33    36    38    65	 9 ;      NG3P2     CG3C31     CG3C31       HGA2
   33    36    38    66	 9 ;      NG3P2     CG3C31     CG3C31       HGA2
   37    36    38    65	 9 ;     CG3C31     CG3C31     CG3C31       HGA2
   37    36    38    66	 9 ;     CG3C31     CG3C31     CG3C31       HGA2
   62    36    38    37	 9 ;       HGA1     CG3C31     CG3C31     CG3C31
   62    36    38    65	 9 ;       HGA1     CG3C31     CG3C31       HGA2
   62    36    38    66	 9 ;       HGA1     CG3C31     CG3C31       HGA2
   36    37    38    65	 9 ;     CG3C31     CG3C31     CG3C31       HGA2
   36    37    38    66	 9 ;     CG3C31     CG3C31     CG3C31       HGA2
   63    37    38    36	 9 ;       HGA2     CG3C31     CG3C31     CG3C31
   63    37    38    65	 9 ;       HGA2     CG3C31     CG3C31       HGA2
   63    37    38    66	 9 ;       HGA2     CG3C31     CG3C31       HGA2
   64    37    38    36	 9 ;       HGA2     CG3C31     CG3C31     CG3C31
   64    37    38    65	 9 ;       HGA2     CG3C31     CG3C31       HGA2
   64    37    38    66	 9 ;       HGA2     CG3C31     CG3C31       HGA2

[ dihedrals ]
;	ai	  aj	ak	  al funct			  c0			c1			  c2			c3
    1     5     3     2	 2

