; Created by cgenff_charmm2gmx.py

[ moleculetype ]
; Name			   nrexcl
LIG				 3

[ atoms ]
;	 nr		  type	resnr residue  atom   cgnr	   charge		mass  typeB    chargeB		massB
; residue	 1 LIG rtp LIG q	qsum
     1      NG2S1      1    LIG     N1      1     -0.397     14.007   ;
     2      CG2O1      1    LIG     C1      2      0.600     12.011   ;
     3      OG2D1      1    LIG     O1      3     -0.474     15.999   ;
     4       HGP1      1    LIG     H1      4      0.263      1.008   ;
     5     CG2R51      1    LIG     C2      5     -0.766     12.011   ;
     6     CG2RC0      1    LIG     C3      6      0.842     12.011   ;
     7     CG2R61      1    LIG     C4      7     -0.460     12.011   ;
     8     CG2RC0      1    LIG     C5      8      0.143     12.011   ;
     9     CG2R61      1    LIG     C6      9      0.131     12.011   ;
    10     CG2R61      1    LIG     C7     10     -0.177     12.011   ;
    11     CG2R61      1    LIG     C8     11     -0.254     12.011   ;
    12     NG2R51      1    LIG     N2     12     -0.219     14.007   ;
    13     CG2R51      1    LIG     C9     13     -0.080     12.011   ;
    14      CG2O6      1    LIG    C10     14      0.551     12.011   ;
    15      OG2D1      1    LIG     O2     15     -0.508     15.999   ;
    16      NG2S0      1    LIG     N3     16     -0.122     14.007   ;
    17      CG331      1    LIG    C11     17     -0.197     12.011   ;
    18      CG2O2      1    LIG    C12     18      0.377     12.011   ;
    19      OG2D1      1    LIG     O3     19     -0.487     15.999   ;
    20      OG302      1    LIG     O4     20     -0.345     15.999   ;
    21      CG321      1    LIG    C13     21      0.067     12.011   ;
    22     CG2R61      1    LIG    C14     22      0.007     12.011   ;
    23     CG2R61      1    LIG    C15     23     -0.123     12.011   ;
    24     CG2R61      1    LIG    C16     24     -0.112     12.011   ;
    25     CG2R61      1    LIG    C17     25     -0.116     12.011   ;
    26     CG2R61      1    LIG    C18     26     -0.112     12.011   ;
    27     CG2R61      1    LIG    C19     27     -0.123     12.011   ;
    28      CG321      1    LIG    C20     28     -0.029     12.011   ;
    29      CG321      1    LIG    C21     29     -0.133     12.011   ;
    30      CG321      1    LIG    C22     30     -0.194     12.011   ;
    31      CG331      1    LIG    C23     31     -0.270     12.011   ;
    32      CG311      1    LIG    C24     32      0.008     12.011   ;
    33      CG321      1    LIG    C25     33     -0.153     12.011   ;
    34     CG2R61      1    LIG    C26     34      0.057     12.011   ;
    35     CG2R61      1    LIG    C27     35     -0.218     12.011   ;
    36     CG2R66      1    LIG    C28     36      0.261     12.011   ;
    37       FGR1      1    LIG     F1     37     -0.210     18.998   ;
    38     CG2R61      1    LIG    C29     38     -0.240     12.011   ;
    39     CG2R66      1    LIG    C30     39      0.261     12.011   ;
    40     CG2R61      1    LIG    C31     40     -0.218     12.011   ;
    41       FGR1      1    LIG     F2     41     -0.210     18.998   ;
    42      CG311      1    LIG    C32     42      0.094     12.011   ;
    43      CG324      1    LIG    C33     43      0.178     12.011   ;
    44      NG3P2      1    LIG     N4     44     -0.444     14.007   ;
    45       HGP2      1    LIG     H2     45      0.348      1.008   ;
    46       HGP2      1    LIG     H3     46      0.348      1.008   ;
    47      CG324      1    LIG    C34     47      0.171     12.011   ;
    48     CG2R61      1    LIG    C35     48      0.036     12.011   ;
    49     CG2R61      1    LIG    C36     49     -0.124     12.011   ;
    50     CG2R61      1    LIG    C37     50      0.216     12.011   ;
    51     CG2R61      1    LIG    C38     51     -0.121     12.011   ;
    52     CG2R61      1    LIG    C39     52     -0.108     12.011   ;
    53     CG2R61      1    LIG    C40     53     -0.119     12.011   ;
    54      OG301      1    LIG     O5     54     -0.383     15.999   ;
    55      CG331      1    LIG    C41     55     -0.094     12.011   ;
    56      OG311      1    LIG     O6     56     -0.625     15.999   ;
    57       HGP1      1    LIG     H4     57      0.415      1.008   ;
    58      HGR61      1    LIG     HC     58      0.197      1.008   ;
    59      HGR61      1    LIG    HC1     59      0.134      1.008   ;
    60      HGR61      1    LIG    HC2     60      0.184      1.008   ;
    61      HGR52      1    LIG    HC3     61      0.248      1.008   ;
    62       HGA3      1    LIG    HC4     62      0.090      1.008   ;
    63       HGA3      1    LIG    HC5     63      0.090      1.008   ;
    64       HGA3      1    LIG    HC6     64      0.090      1.008   ;
    65       HGA2      1    LIG    HC7     65      0.090      1.008   ;
    66       HGA2      1    LIG    HC8     66      0.090      1.008   ;
    67      HGR61      1    LIG    HC9     67      0.116      1.008   ;
    68      HGR61      1    LIG   HC10     68      0.116      1.008   ;
    69      HGR61      1    LIG   HC11     69      0.116      1.008   ;
    70      HGR61      1    LIG   HC12     70      0.116      1.008   ;
    71      HGR61      1    LIG   HC13     71      0.116      1.008   ;
    72       HGA2      1    LIG   HC14     72      0.090      1.008   ;
    73       HGA2      1    LIG   HC15     73      0.090      1.008   ;
    74       HGA2      1    LIG   HC16     74      0.090      1.008   ;
    75       HGA2      1    LIG   HC17     75      0.090      1.008   ;
    76       HGA2      1    LIG   HC18     76      0.090      1.008   ;
    77       HGA2      1    LIG   HC19     77      0.090      1.008   ;
    78       HGA3      1    LIG   HC20     78      0.090      1.008   ;
    79       HGA3      1    LIG   HC21     79      0.090      1.008   ;
    80       HGA3      1    LIG   HC22     80      0.090      1.008   ;
    81       HGA1      1    LIG   HC23     81      0.090      1.008   ;
    82       HGA2      1    LIG   HC24     82      0.090      1.008   ;
    83       HGA2      1    LIG   HC25     83      0.090      1.008   ;
    84      HGR62      1    LIG   HC26     84      0.174      1.008   ;
    85      HGR62      1    LIG   HC27     85      0.186      1.008   ;
    86      HGR62      1    LIG   HC28     86      0.174      1.008   ;
    87       HGA1      1    LIG   HC29     87      0.090      1.008   ;
    88       HGA2      1    LIG   HC30     88      0.090      1.008   ;
    89       HGA2      1    LIG   HC31     89      0.090      1.008   ;
    90       HGA2      1    LIG   HC32     90      0.090      1.008   ;
    91       HGA2      1    LIG   HC33     91      0.090      1.008   ;
    92      HGR61      1    LIG   HC34     92      0.116      1.008   ;
    93      HGR61      1    LIG   HC35     93      0.116      1.008   ;
    94      HGR61      1    LIG   HC36     94      0.116      1.008   ;
    95      HGR61      1    LIG   HC37     95      0.116      1.008   ;
    96       HGA3      1    LIG   HC38     96      0.090      1.008   ;
    97       HGA3      1    LIG   HC39     97      0.090      1.008   ;
    98       HGA3      1    LIG   HC40     98      0.090      1.008   ;

[ bonds ]
;	ai	  aj funct			  c0			c1			  c2			c3
    1    32	 1 ;       NG2S1      CG311
    1     4	 1 ;       NG2S1       HGP1
    1     2	 1 ;       NG2S1      CG2O1
    2     3	 1 ;       CG2O1      OG2D1
    2     5	 1 ;       CG2O1     CG2R51
    5     6	 1 ;      CG2R51     CG2RC0
    5    13	 1 ;      CG2R51     CG2R51
    6     7	 1 ;      CG2RC0     CG2R61
    6     8	 1 ;      CG2RC0     CG2RC0
    7     9	 1 ;      CG2R61     CG2R61
    7    58	 1 ;      CG2R61      HGR61
    8    11	 1 ;      CG2RC0     CG2R61
    8    12	 1 ;      CG2RC0     NG2R51
    9    18	 1 ;      CG2R61      CG2O2
    9    10	 1 ;      CG2R61     CG2R61
   10    11	 1 ;      CG2R61     CG2R61
   10    59	 1 ;      CG2R61      HGR61
   11    60	 1 ;      CG2R61      HGR61
   12    13	 1 ;      NG2R51     CG2R51
   12    14	 1 ;      NG2R51      CG2O6
   13    61	 1 ;      CG2R51      HGR52
   14    15	 1 ;       CG2O6      OG2D1
   14    16	 1 ;       CG2O6      NG2S0
   16    17	 1 ;       NG2S0      CG331
   16    28	 1 ;       NG2S0      CG321
   17    62	 1 ;       CG331       HGA3
   17    63	 1 ;       CG331       HGA3
   17    64	 1 ;       CG331       HGA3
   18    19	 1 ;       CG2O2      OG2D1
   18    20	 1 ;       CG2O2      OG302
   20    21	 1 ;       OG302      CG321
   21    22	 1 ;       CG321     CG2R61
   21    65	 1 ;       CG321       HGA2
   21    66	 1 ;       CG321       HGA2
   22    23	 1 ;      CG2R61     CG2R61
   22    27	 1 ;      CG2R61     CG2R61
   23    24	 1 ;      CG2R61     CG2R61
   23    67	 1 ;      CG2R61      HGR61
   24    25	 1 ;      CG2R61     CG2R61
   24    68	 1 ;      CG2R61      HGR61
   25    26	 1 ;      CG2R61     CG2R61
   25    69	 1 ;      CG2R61      HGR61
   26    27	 1 ;      CG2R61     CG2R61
   26    70	 1 ;      CG2R61      HGR61
   27    71	 1 ;      CG2R61      HGR61
   28    29	 1 ;       CG321      CG321
   28    72	 1 ;       CG321       HGA2
   28    73	 1 ;       CG321       HGA2
   29    30	 1 ;       CG321      CG321
   29    74	 1 ;       CG321       HGA2
   29    75	 1 ;       CG321       HGA2
   30    31	 1 ;       CG321      CG331
   30    76	 1 ;       CG321       HGA2
   30    77	 1 ;       CG321       HGA2
   31    78	 1 ;       CG331       HGA3
   31    79	 1 ;       CG331       HGA3
   31    80	 1 ;       CG331       HGA3
   32    33	 1 ;       CG311      CG321
   32    42	 1 ;       CG311      CG311
   32    81	 1 ;       CG311       HGA1
   33    34	 1 ;       CG321     CG2R61
   33    82	 1 ;       CG321       HGA2
   33    83	 1 ;       CG321       HGA2
   34    35	 1 ;      CG2R61     CG2R61
   34    40	 1 ;      CG2R61     CG2R61
   35    36	 1 ;      CG2R61     CG2R66
   35    84	 1 ;      CG2R61      HGR62
   36    37	 1 ;      CG2R66       FGR1
   36    38	 1 ;      CG2R66     CG2R61
   38    39	 1 ;      CG2R61     CG2R66
   38    85	 1 ;      CG2R61      HGR62
   39    41	 1 ;      CG2R66       FGR1
   39    40	 1 ;      CG2R66     CG2R61
   40    86	 1 ;      CG2R61      HGR62
   42    43	 1 ;       CG311      CG324
   42    56	 1 ;       CG311      OG311
   42    87	 1 ;       CG311       HGA1
   43    44	 1 ;       CG324      NG3P2
   43    88	 1 ;       CG324       HGA2
   43    89	 1 ;       CG324       HGA2
   44    45	 1 ;       NG3P2       HGP2
   44    46	 1 ;       NG3P2       HGP2
   44    47	 1 ;       NG3P2      CG324
   47    48	 1 ;       CG324     CG2R61
   47    90	 1 ;       CG324       HGA2
   47    91	 1 ;       CG324       HGA2
   48    49	 1 ;      CG2R61     CG2R61
   48    53	 1 ;      CG2R61     CG2R61
   49    50	 1 ;      CG2R61     CG2R61
   49    92	 1 ;      CG2R61      HGR61
   50    54	 1 ;      CG2R61      OG301
   50    51	 1 ;      CG2R61     CG2R61
   51    52	 1 ;      CG2R61     CG2R61
   51    93	 1 ;      CG2R61      HGR61
   52    53	 1 ;      CG2R61     CG2R61
   52    94	 1 ;      CG2R61      HGR61
   53    95	 1 ;      CG2R61      HGR61
   54    55	 1 ;       OG301      CG331
   55    96	 1 ;       CG331       HGA3
   55    97	 1 ;       CG331       HGA3
   55    98	 1 ;       CG331       HGA3
   56    57	 1 ;       OG311       HGP1

[ pairs ]
;	ai	  aj funct			  c0			c1			  c2			c3
    1     6	 1
    1    13	 1
    1    34	 1
    1    82	 1
    1    83	 1
    1    43	 1
    1    56	 1
    1    87	 1
    2    33	 1
    2    42	 1
    2    81	 1
    2     7	 1
    2     8	 1
    2    12	 1
    2    61	 1
    3    32	 1
    3     4	 1
    3     6	 1
    3    13	 1
    4    33	 1
    4    42	 1
    4    81	 1
    4     5	 1
    5    32	 1
    5     9	 1
    5    58	 1
    5    11	 1
    5    14	 1
    6    61	 1
    6    18	 1
    6    10	 1
    6    60	 1
    6    14	 1
    7    13	 1
    7    11	 1
    7    12	 1
    7    19	 1
    7    20	 1
    7    59	 1
    8     9	 1
    8    58	 1
    8    59	 1
    8    61	 1
    8    15	 1
    8    16	 1
    9    60	 1
    9    21	 1
   10    58	 1
   10    12	 1
   10    19	 1
   10    20	 1
   11    13	 1
   11    14	 1
   11    18	 1
   12    60	 1
   12    17	 1
   12    28	 1
   13    15	 1
   13    16	 1
   14    61	 1
   14    62	 1
   14    63	 1
   14    64	 1
   14    29	 1
   14    72	 1
   14    73	 1
   15    17	 1
   15    28	 1
   16    30	 1
   16    74	 1
   16    75	 1
   17    29	 1
   17    72	 1
   17    73	 1
   18    58	 1
   18    59	 1
   18    22	 1
   18    65	 1
   18    66	 1
   19    21	 1
   20    23	 1
   20    27	 1
   21    24	 1
   21    67	 1
   21    26	 1
   21    71	 1
   22    25	 1
   22    68	 1
   22    70	 1
   23    65	 1
   23    66	 1
   23    26	 1
   23    71	 1
   23    69	 1
   24    27	 1
   24    70	 1
   25    67	 1
   25    71	 1
   26    68	 1
   27    65	 1
   27    66	 1
   27    67	 1
   27    69	 1
   28    62	 1
   28    63	 1
   28    64	 1
   28    31	 1
   28    76	 1
   28    77	 1
   29    78	 1
   29    79	 1
   29    80	 1
   30    72	 1
   30    73	 1
   31    74	 1
   31    75	 1
   32    35	 1
   32    40	 1
   32    44	 1
   32    88	 1
   32    89	 1
   32    57	 1
   33    43	 1
   33    56	 1
   33    87	 1
   33    36	 1
   33    84	 1
   33    39	 1
   33    86	 1
   34    42	 1
   34    81	 1
   34    37	 1
   34    38	 1
   34    41	 1
   35    82	 1
   35    83	 1
   35    39	 1
   35    86	 1
   35    85	 1
   36    40	 1
   36    41	 1
   37    84	 1
   37    39	 1
   37    85	 1
   38    84	 1
   38    86	 1
   40    82	 1
   40    83	 1
   40    84	 1
   40    85	 1
   41    85	 1
   41    86	 1
   42    82	 1
   42    83	 1
   42    45	 1
   42    46	 1
   42    47	 1
   43    81	 1
   43    57	 1
   43    48	 1
   43    90	 1
   43    91	 1
   44    56	 1
   44    87	 1
   44    49	 1
   44    53	 1
   45    88	 1
   45    89	 1
   45    48	 1
   45    90	 1
   45    91	 1
   46    88	 1
   46    89	 1
   46    48	 1
   46    90	 1
   46    91	 1
   47    88	 1
   47    89	 1
   47    50	 1
   47    92	 1
   47    52	 1
   47    95	 1
   48    54	 1
   48    51	 1
   48    94	 1
   49    90	 1
   49    91	 1
   49    52	 1
   49    95	 1
   49    55	 1
   49    93	 1
   50    53	 1
   50    94	 1
   50    96	 1
   50    97	 1
   50    98	 1
   51    92	 1
   51    55	 1
   51    95	 1
   52    54	 1
   53    90	 1
   53    91	 1
   53    92	 1
   53    93	 1
   54    92	 1
   54    93	 1
   56    81	 1
   56    88	 1
   56    89	 1
   57    87	 1
   59    60	 1
   67    68	 1
   68    69	 1
   69    70	 1
   70    71	 1
   72    74	 1
   72    75	 1
   73    74	 1
   73    75	 1
   74    76	 1
   74    77	 1
   75    76	 1
   75    77	 1
   76    78	 1
   76    79	 1
   76    80	 1
   77    78	 1
   77    79	 1
   77    80	 1
   81    82	 1
   81    83	 1
   81    87	 1
   87    88	 1
   87    89	 1
   93    94	 1
   94    95	 1

[ angles ]
;	ai	  aj	ak funct			c0			  c1			c2			  c3
   32     1     4	5 ;      CG311      NG2S1       HGP1
   32     1     2	5 ;      CG311      NG2S1      CG2O1
    4     1     2	5 ;       HGP1      NG2S1      CG2O1
    1     2     3	5 ;      NG2S1      CG2O1      OG2D1
    1     2     5	5 ;      NG2S1      CG2O1     CG2R51
    3     2     5	5 ;      OG2D1      CG2O1     CG2R51
    6     5     2	5 ;     CG2RC0     CG2R51      CG2O1
    6     5    13	5 ;     CG2RC0     CG2R51     CG2R51
    2     5    13	5 ;      CG2O1     CG2R51     CG2R51
    7     6     5	5 ;     CG2R61     CG2RC0     CG2R51
    7     6     8	5 ;     CG2R61     CG2RC0     CG2RC0
    5     6     8	5 ;     CG2R51     CG2RC0     CG2RC0
    9     7     6	5 ;     CG2R61     CG2R61     CG2RC0
    9     7    58	5 ;     CG2R61     CG2R61      HGR61
    6     7    58	5 ;     CG2RC0     CG2R61      HGR61
    6     8    11	5 ;     CG2RC0     CG2RC0     CG2R61
    6     8    12	5 ;     CG2RC0     CG2RC0     NG2R51
   11     8    12	5 ;     CG2R61     CG2RC0     NG2R51
   18     9     7	5 ;      CG2O2     CG2R61     CG2R61
   18     9    10	5 ;      CG2O2     CG2R61     CG2R61
    7     9    10	5 ;     CG2R61     CG2R61     CG2R61
    9    10    11	5 ;     CG2R61     CG2R61     CG2R61
    9    10    59	5 ;     CG2R61     CG2R61      HGR61
   11    10    59	5 ;     CG2R61     CG2R61      HGR61
   10    11     8	5 ;     CG2R61     CG2R61     CG2RC0
   10    11    60	5 ;     CG2R61     CG2R61      HGR61
    8    11    60	5 ;     CG2RC0     CG2R61      HGR61
    8    12    13	5 ;     CG2RC0     NG2R51     CG2R51
    8    12    14	5 ;     CG2RC0     NG2R51      CG2O6
   13    12    14	5 ;     CG2R51     NG2R51      CG2O6
    5    13    12	5 ;     CG2R51     CG2R51     NG2R51
    5    13    61	5 ;     CG2R51     CG2R51      HGR52
   12    13    61	5 ;     NG2R51     CG2R51      HGR52
   12    14    15	5 ;     NG2R51      CG2O6      OG2D1
   12    14    16	5 ;     NG2R51      CG2O6      NG2S0
   15    14    16	5 ;      OG2D1      CG2O6      NG2S0
   14    16    17	5 ;      CG2O6      NG2S0      CG331
   14    16    28	5 ;      CG2O6      NG2S0      CG321
   17    16    28	5 ;      CG331      NG2S0      CG321
   16    17    62	5 ;      NG2S0      CG331       HGA3
   16    17    63	5 ;      NG2S0      CG331       HGA3
   16    17    64	5 ;      NG2S0      CG331       HGA3
   62    17    63	5 ;       HGA3      CG331       HGA3
   62    17    64	5 ;       HGA3      CG331       HGA3
   63    17    64	5 ;       HGA3      CG331       HGA3
   19    18    20	5 ;      OG2D1      CG2O2      OG302
   19    18     9	5 ;      OG2D1      CG2O2     CG2R61
   20    18     9	5 ;      OG302      CG2O2     CG2R61
   18    20    21	5 ;      CG2O2      OG302      CG321
   20    21    22	5 ;      OG302      CG321     CG2R61
   20    21    65	5 ;      OG302      CG321       HGA2
   20    21    66	5 ;      OG302      CG321       HGA2
   22    21    65	5 ;     CG2R61      CG321       HGA2
   22    21    66	5 ;     CG2R61      CG321       HGA2
   65    21    66	5 ;       HGA2      CG321       HGA2
   23    22    21	5 ;     CG2R61     CG2R61      CG321
   23    22    27	5 ;     CG2R61     CG2R61     CG2R61
   21    22    27	5 ;      CG321     CG2R61     CG2R61
   24    23    22	5 ;     CG2R61     CG2R61     CG2R61
   24    23    67	5 ;     CG2R61     CG2R61      HGR61
   22    23    67	5 ;     CG2R61     CG2R61      HGR61
   23    24    25	5 ;     CG2R61     CG2R61     CG2R61
   23    24    68	5 ;     CG2R61     CG2R61      HGR61
   25    24    68	5 ;     CG2R61     CG2R61      HGR61
   24    25    26	5 ;     CG2R61     CG2R61     CG2R61
   24    25    69	5 ;     CG2R61     CG2R61      HGR61
   26    25    69	5 ;     CG2R61     CG2R61      HGR61
   25    26    27	5 ;     CG2R61     CG2R61     CG2R61
   25    26    70	5 ;     CG2R61     CG2R61      HGR61
   27    26    70	5 ;     CG2R61     CG2R61      HGR61
   22    27    26	5 ;     CG2R61     CG2R61     CG2R61
   22    27    71	5 ;     CG2R61     CG2R61      HGR61
   26    27    71	5 ;     CG2R61     CG2R61      HGR61
   16    28    29	5 ;      NG2S0      CG321      CG321
   16    28    72	5 ;      NG2S0      CG321       HGA2
   16    28    73	5 ;      NG2S0      CG321       HGA2
   29    28    72	5 ;      CG321      CG321       HGA2
   29    28    73	5 ;      CG321      CG321       HGA2
   72    28    73	5 ;       HGA2      CG321       HGA2
   28    29    30	5 ;      CG321      CG321      CG321
   28    29    74	5 ;      CG321      CG321       HGA2
   28    29    75	5 ;      CG321      CG321       HGA2
   30    29    74	5 ;      CG321      CG321       HGA2
   30    29    75	5 ;      CG321      CG321       HGA2
   74    29    75	5 ;       HGA2      CG321       HGA2
   29    30    31	5 ;      CG321      CG321      CG331
   29    30    76	5 ;      CG321      CG321       HGA2
   29    30    77	5 ;      CG321      CG321       HGA2
   31    30    76	5 ;      CG331      CG321       HGA2
   31    30    77	5 ;      CG331      CG321       HGA2
   76    30    77	5 ;       HGA2      CG321       HGA2
   30    31    78	5 ;      CG321      CG331       HGA3
   30    31    79	5 ;      CG321      CG331       HGA3
   30    31    80	5 ;      CG321      CG331       HGA3
   78    31    79	5 ;       HGA3      CG331       HGA3
   78    31    80	5 ;       HGA3      CG331       HGA3
   79    31    80	5 ;       HGA3      CG331       HGA3
   33    32    42	5 ;      CG321      CG311      CG311
   33    32     1	5 ;      CG321      CG311      NG2S1
   33    32    81	5 ;      CG321      CG311       HGA1
   42    32     1	5 ;      CG311      CG311      NG2S1
   42    32    81	5 ;      CG311      CG311       HGA1
    1    32    81	5 ;      NG2S1      CG311       HGA1
   34    33    32	5 ;     CG2R61      CG321      CG311
   34    33    82	5 ;     CG2R61      CG321       HGA2
   34    33    83	5 ;     CG2R61      CG321       HGA2
   32    33    82	5 ;      CG311      CG321       HGA2
   32    33    83	5 ;      CG311      CG321       HGA2
   82    33    83	5 ;       HGA2      CG321       HGA2
   35    34    40	5 ;     CG2R61     CG2R61     CG2R61
   35    34    33	5 ;     CG2R61     CG2R61      CG321
   40    34    33	5 ;     CG2R61     CG2R61      CG321
   36    35    34	5 ;     CG2R66     CG2R61     CG2R61
   36    35    84	5 ;     CG2R66     CG2R61      HGR62
   34    35    84	5 ;     CG2R61     CG2R61      HGR62
   37    36    38	5 ;       FGR1     CG2R66     CG2R61
   37    36    35	5 ;       FGR1     CG2R66     CG2R61
   38    36    35	5 ;     CG2R61     CG2R66     CG2R61
   36    38    39	5 ;     CG2R66     CG2R61     CG2R66
   36    38    85	5 ;     CG2R66     CG2R61      HGR62
   39    38    85	5 ;     CG2R66     CG2R61      HGR62
   38    39    41	5 ;     CG2R61     CG2R66       FGR1
   38    39    40	5 ;     CG2R61     CG2R66     CG2R61
   41    39    40	5 ;       FGR1     CG2R66     CG2R61
   39    40    34	5 ;     CG2R66     CG2R61     CG2R61
   39    40    86	5 ;     CG2R66     CG2R61      HGR62
   34    40    86	5 ;     CG2R61     CG2R61      HGR62
   32    42    43	5 ;      CG311      CG311      CG324
   32    42    56	5 ;      CG311      CG311      OG311
   32    42    87	5 ;      CG311      CG311       HGA1
   43    42    56	5 ;      CG324      CG311      OG311
   43    42    87	5 ;      CG324      CG311       HGA1
   56    42    87	5 ;      OG311      CG311       HGA1
   44    43    42	5 ;      NG3P2      CG324      CG311
   44    43    88	5 ;      NG3P2      CG324       HGA2
   44    43    89	5 ;      NG3P2      CG324       HGA2
   42    43    88	5 ;      CG311      CG324       HGA2
   42    43    89	5 ;      CG311      CG324       HGA2
   88    43    89	5 ;       HGA2      CG324       HGA2
   45    44    46	5 ;       HGP2      NG3P2       HGP2
   45    44    47	5 ;       HGP2      NG3P2      CG324
   45    44    43	5 ;       HGP2      NG3P2      CG324
   46    44    47	5 ;       HGP2      NG3P2      CG324
   46    44    43	5 ;       HGP2      NG3P2      CG324
   47    44    43	5 ;      CG324      NG3P2      CG324
   44    47    48	5 ;      NG3P2      CG324     CG2R61
   44    47    90	5 ;      NG3P2      CG324       HGA2
   44    47    91	5 ;      NG3P2      CG324       HGA2
   48    47    90	5 ;     CG2R61      CG324       HGA2
   48    47    91	5 ;     CG2R61      CG324       HGA2
   90    47    91	5 ;       HGA2      CG324       HGA2
   49    48    47	5 ;     CG2R61     CG2R61      CG324
   49    48    53	5 ;     CG2R61     CG2R61     CG2R61
   47    48    53	5 ;      CG324     CG2R61     CG2R61
   50    49    48	5 ;     CG2R61     CG2R61     CG2R61
   50    49    92	5 ;     CG2R61     CG2R61      HGR61
   48    49    92	5 ;     CG2R61     CG2R61      HGR61
   54    50    49	5 ;      OG301     CG2R61     CG2R61
   54    50    51	5 ;      OG301     CG2R61     CG2R61
   49    50    51	5 ;     CG2R61     CG2R61     CG2R61
   50    51    52	5 ;     CG2R61     CG2R61     CG2R61
   50    51    93	5 ;     CG2R61     CG2R61      HGR61
   52    51    93	5 ;     CG2R61     CG2R61      HGR61
   51    52    53	5 ;     CG2R61     CG2R61     CG2R61
   51    52    94	5 ;     CG2R61     CG2R61      HGR61
   53    52    94	5 ;     CG2R61     CG2R61      HGR61
   48    53    52	5 ;     CG2R61     CG2R61     CG2R61
   48    53    95	5 ;     CG2R61     CG2R61      HGR61
   52    53    95	5 ;     CG2R61     CG2R61      HGR61
   55    54    50	5 ;      CG331      OG301     CG2R61
   54    55    96	5 ;      OG301      CG331       HGA3
   54    55    97	5 ;      OG301      CG331       HGA3
   54    55    98	5 ;      OG301      CG331       HGA3
   96    55    97	5 ;       HGA3      CG331       HGA3
   96    55    98	5 ;       HGA3      CG331       HGA3
   97    55    98	5 ;       HGA3      CG331       HGA3
   42    56    57	5 ;      CG311      OG311       HGP1

[ dihedrals ]
;	ai	  aj	ak	  al funct			  c0			c1			  c2			c3			  c4			c5
    4     1    32    33	 9 ;       HGP1      NG2S1      CG311      CG321
    4     1    32    42	 9 ;       HGP1      NG2S1      CG311      CG311
    4     1    32    81	 9 ;       HGP1      NG2S1      CG311       HGA1
    2     1    32    33	 9 ;      CG2O1      NG2S1      CG311      CG321
    2     1    32    42	 9 ;      CG2O1      NG2S1      CG311      CG311
    2     1    32    81	 9 ;      CG2O1      NG2S1      CG311       HGA1
   32     1     2     3	 9 ;      CG311      NG2S1      CG2O1      OG2D1
   32     1     2     5	 9 ;      CG311      NG2S1      CG2O1     CG2R51
    4     1     2     3	 9 ;       HGP1      NG2S1      CG2O1      OG2D1
    4     1     2     5	 9 ;       HGP1      NG2S1      CG2O1     CG2R51
    1     2     5     6	 9 ;      NG2S1      CG2O1     CG2R51     CG2RC0
    1     2     5    13	 9 ;      NG2S1      CG2O1     CG2R51     CG2R51
    3     2     5     6	 9 ;      OG2D1      CG2O1     CG2R51     CG2RC0
    3     2     5    13	 9 ;      OG2D1      CG2O1     CG2R51     CG2R51
    2     5     6     7	 9 ;      CG2O1     CG2R51     CG2RC0     CG2R61
    2     5     6     8	 9 ;      CG2O1     CG2R51     CG2RC0     CG2RC0
   13     5     6     7	 9 ;     CG2R51     CG2R51     CG2RC0     CG2R61
   13     5     6     8	 9 ;     CG2R51     CG2R51     CG2RC0     CG2RC0
    6     5    13    12	 9 ;     CG2RC0     CG2R51     CG2R51     NG2R51
    6     5    13    61	 9 ;     CG2RC0     CG2R51     CG2R51      HGR52
    2     5    13    12	 9 ;      CG2O1     CG2R51     CG2R51     NG2R51
    2     5    13    61	 9 ;      CG2O1     CG2R51     CG2R51      HGR52
    5     6     7     9	 9 ;     CG2R51     CG2RC0     CG2R61     CG2R61
    5     6     7    58	 9 ;     CG2R51     CG2RC0     CG2R61      HGR61
    8     6     7     9	 9 ;     CG2RC0     CG2RC0     CG2R61     CG2R61
    8     6     7    58	 9 ;     CG2RC0     CG2RC0     CG2R61      HGR61
    7     6     8    11	 9 ;     CG2R61     CG2RC0     CG2RC0     CG2R61
    7     6     8    12	 9 ;     CG2R61     CG2RC0     CG2RC0     NG2R51
    5     6     8    11	 9 ;     CG2R51     CG2RC0     CG2RC0     CG2R61
    5     6     8    12	 9 ;     CG2R51     CG2RC0     CG2RC0     NG2R51
    6     7     9    18	 9 ;     CG2RC0     CG2R61     CG2R61      CG2O2
    6     7     9    10	 9 ;     CG2RC0     CG2R61     CG2R61     CG2R61
   58     7     9    18	 9 ;      HGR61     CG2R61     CG2R61      CG2O2
   58     7     9    10	 9 ;      HGR61     CG2R61     CG2R61     CG2R61
    6     8    11    10	 9 ;     CG2RC0     CG2RC0     CG2R61     CG2R61
    6     8    11    60	 9 ;     CG2RC0     CG2RC0     CG2R61      HGR61
   12     8    11    10	 9 ;     NG2R51     CG2RC0     CG2R61     CG2R61
   12     8    11    60	 9 ;     NG2R51     CG2RC0     CG2R61      HGR61
    6     8    12    13	 9 ;     CG2RC0     CG2RC0     NG2R51     CG2R51
    6     8    12    14	 9 ;     CG2RC0     CG2RC0     NG2R51      CG2O6
   11     8    12    13	 9 ;     CG2R61     CG2RC0     NG2R51     CG2R51
   11     8    12    14	 9 ;     CG2R61     CG2RC0     NG2R51      CG2O6
    7     9    18    19	 9 ;     CG2R61     CG2R61      CG2O2      OG2D1
    7     9    18    20	 9 ;     CG2R61     CG2R61      CG2O2      OG302
   10     9    18    19	 9 ;     CG2R61     CG2R61      CG2O2      OG2D1
   10     9    18    20	 9 ;     CG2R61     CG2R61      CG2O2      OG302
   18     9    10    11	 9 ;      CG2O2     CG2R61     CG2R61     CG2R61
   18     9    10    59	 9 ;      CG2O2     CG2R61     CG2R61      HGR61
    7     9    10    11	 9 ;     CG2R61     CG2R61     CG2R61     CG2R61
    7     9    10    59	 9 ;     CG2R61     CG2R61     CG2R61      HGR61
    9    10    11     8	 9 ;     CG2R61     CG2R61     CG2R61     CG2RC0
    9    10    11    60	 9 ;     CG2R61     CG2R61     CG2R61      HGR61
   59    10    11     8	 9 ;      HGR61     CG2R61     CG2R61     CG2RC0
   59    10    11    60	 9 ;      HGR61     CG2R61     CG2R61      HGR61
    8    12    13     5	 9 ;     CG2RC0     NG2R51     CG2R51     CG2R51
    8    12    13    61	 9 ;     CG2RC0     NG2R51     CG2R51      HGR52
   14    12    13     5	 9 ;      CG2O6     NG2R51     CG2R51     CG2R51
   14    12    13    61	 9 ;      CG2O6     NG2R51     CG2R51      HGR52
    8    12    14    15	 9 ;     CG2RC0     NG2R51      CG2O6      OG2D1
    8    12    14    16	 9 ;     CG2RC0     NG2R51      CG2O6      NG2S0
   13    12    14    15	 9 ;     CG2R51     NG2R51      CG2O6      OG2D1
   13    12    14    16	 9 ;     CG2R51     NG2R51      CG2O6      NG2S0
   12    14    16    17	 9 ;     NG2R51      CG2O6      NG2S0      CG331
   12    14    16    28	 9 ;     NG2R51      CG2O6      NG2S0      CG321
   15    14    16    17	 9 ;      OG2D1      CG2O6      NG2S0      CG331
   15    14    16    28	 9 ;      OG2D1      CG2O6      NG2S0      CG321
   14    16    17    62	 9 ;      CG2O6      NG2S0      CG331       HGA3
   14    16    17    63	 9 ;      CG2O6      NG2S0      CG331       HGA3
   14    16    17    64	 9 ;      CG2O6      NG2S0      CG331       HGA3
   28    16    17    62	 9 ;      CG321      NG2S0      CG331       HGA3
   28    16    17    63	 9 ;      CG321      NG2S0      CG331       HGA3
   28    16    17    64	 9 ;      CG321      NG2S0      CG331       HGA3
   14    16    28    29	 9 ;      CG2O6      NG2S0      CG321      CG321
   14    16    28    72	 9 ;      CG2O6      NG2S0      CG321       HGA2
   14    16    28    73	 9 ;      CG2O6      NG2S0      CG321       HGA2
   17    16    28    29	 9 ;      CG331      NG2S0      CG321      CG321
   17    16    28    72	 9 ;      CG331      NG2S0      CG321       HGA2
   17    16    28    73	 9 ;      CG331      NG2S0      CG321       HGA2
   19    18    20    21	 9 ;      OG2D1      CG2O2      OG302      CG321
    9    18    20    21	 9 ;     CG2R61      CG2O2      OG302      CG321
   18    20    21    22	 9 ;      CG2O2      OG302      CG321     CG2R61
   18    20    21    65	 9 ;      CG2O2      OG302      CG321       HGA2
   18    20    21    66	 9 ;      CG2O2      OG302      CG321       HGA2
   20    21    22    23	 9 ;      OG302      CG321     CG2R61     CG2R61
   20    21    22    27	 9 ;      OG302      CG321     CG2R61     CG2R61
   65    21    22    23	 9 ;       HGA2      CG321     CG2R61     CG2R61
   65    21    22    27	 9 ;       HGA2      CG321     CG2R61     CG2R61
   66    21    22    23	 9 ;       HGA2      CG321     CG2R61     CG2R61
   66    21    22    27	 9 ;       HGA2      CG321     CG2R61     CG2R61
   21    22    23    24	 9 ;      CG321     CG2R61     CG2R61     CG2R61
   21    22    23    67	 9 ;      CG321     CG2R61     CG2R61      HGR61
   27    22    23    24	 9 ;     CG2R61     CG2R61     CG2R61     CG2R61
   27    22    23    67	 9 ;     CG2R61     CG2R61     CG2R61      HGR61
   23    22    27    26	 9 ;     CG2R61     CG2R61     CG2R61     CG2R61
   23    22    27    71	 9 ;     CG2R61     CG2R61     CG2R61      HGR61
   21    22    27    26	 9 ;      CG321     CG2R61     CG2R61     CG2R61
   21    22    27    71	 9 ;      CG321     CG2R61     CG2R61      HGR61
   22    23    24    25	 9 ;     CG2R61     CG2R61     CG2R61     CG2R61
   22    23    24    68	 9 ;     CG2R61     CG2R61     CG2R61      HGR61
   67    23    24    25	 9 ;      HGR61     CG2R61     CG2R61     CG2R61
   67    23    24    68	 9 ;      HGR61     CG2R61     CG2R61      HGR61
   23    24    25    26	 9 ;     CG2R61     CG2R61     CG2R61     CG2R61
   23    24    25    69	 9 ;     CG2R61     CG2R61     CG2R61      HGR61
   68    24    25    26	 9 ;      HGR61     CG2R61     CG2R61     CG2R61
   68    24    25    69	 9 ;      HGR61     CG2R61     CG2R61      HGR61
   24    25    26    27	 9 ;     CG2R61     CG2R61     CG2R61     CG2R61
   24    25    26    70	 9 ;     CG2R61     CG2R61     CG2R61      HGR61
   69    25    26    27	 9 ;      HGR61     CG2R61     CG2R61     CG2R61
   69    25    26    70	 9 ;      HGR61     CG2R61     CG2R61      HGR61
   25    26    27    22	 9 ;     CG2R61     CG2R61     CG2R61     CG2R61
   25    26    27    71	 9 ;     CG2R61     CG2R61     CG2R61      HGR61
   70    26    27    22	 9 ;      HGR61     CG2R61     CG2R61     CG2R61
   70    26    27    71	 9 ;      HGR61     CG2R61     CG2R61      HGR61
   16    28    29    30	 9 ;      NG2S0      CG321      CG321      CG321
   16    28    29    74	 9 ;      NG2S0      CG321      CG321       HGA2
   16    28    29    75	 9 ;      NG2S0      CG321      CG321       HGA2
   72    28    29    30	 9 ;       HGA2      CG321      CG321      CG321
   72    28    29    74	 9 ;       HGA2      CG321      CG321       HGA2
   72    28    29    75	 9 ;       HGA2      CG321      CG321       HGA2
   73    28    29    30	 9 ;       HGA2      CG321      CG321      CG321
   73    28    29    74	 9 ;       HGA2      CG321      CG321       HGA2
   73    28    29    75	 9 ;       HGA2      CG321      CG321       HGA2
   28    29    30    31	 9 ;      CG321      CG321      CG321      CG331
   28    29    30    76	 9 ;      CG321      CG321      CG321       HGA2
   28    29    30    77	 9 ;      CG321      CG321      CG321       HGA2
   74    29    30    31	 9 ;       HGA2      CG321      CG321      CG331
   74    29    30    76	 9 ;       HGA2      CG321      CG321       HGA2
   74    29    30    77	 9 ;       HGA2      CG321      CG321       HGA2
   75    29    30    31	 9 ;       HGA2      CG321      CG321      CG331
   75    29    30    76	 9 ;       HGA2      CG321      CG321       HGA2
   75    29    30    77	 9 ;       HGA2      CG321      CG321       HGA2
   29    30    31    78	 9 ;      CG321      CG321      CG331       HGA3
   29    30    31    79	 9 ;      CG321      CG321      CG331       HGA3
   29    30    31    80	 9 ;      CG321      CG321      CG331       HGA3
   76    30    31    78	 9 ;       HGA2      CG321      CG331       HGA3
   76    30    31    79	 9 ;       HGA2      CG321      CG331       HGA3
   76    30    31    80	 9 ;       HGA2      CG321      CG331       HGA3
   77    30    31    78	 9 ;       HGA2      CG321      CG331       HGA3
   77    30    31    79	 9 ;       HGA2      CG321      CG331       HGA3
   77    30    31    80	 9 ;       HGA2      CG321      CG331       HGA3
   42    32    33    34	 9 ;      CG311      CG311      CG321     CG2R61
   42    32    33    82	 9 ;      CG311      CG311      CG321       HGA2
   42    32    33    83	 9 ;      CG311      CG311      CG321       HGA2
    1    32    33    34	 9 ;      NG2S1      CG311      CG321     CG2R61
    1    32    33    82	 9 ;      NG2S1      CG311      CG321       HGA2
    1    32    33    83	 9 ;      NG2S1      CG311      CG321       HGA2
   81    32    33    34	 9 ;       HGA1      CG311      CG321     CG2R61
   81    32    33    82	 9 ;       HGA1      CG311      CG321       HGA2
   81    32    33    83	 9 ;       HGA1      CG311      CG321       HGA2
   33    32    42    43	 9 ;      CG321      CG311      CG311      CG324
   33    32    42    56	 9 ;      CG321      CG311      CG311      OG311
   33    32    42    87	 9 ;      CG321      CG311      CG311       HGA1
    1    32    42    43	 9 ;      NG2S1      CG311      CG311      CG324
    1    32    42    56	 9 ;      NG2S1      CG311      CG311      OG311
    1    32    42    87	 9 ;      NG2S1      CG311      CG311       HGA1
   81    32    42    43	 9 ;       HGA1      CG311      CG311      CG324
   81    32    42    56	 9 ;       HGA1      CG311      CG311      OG311
   81    32    42    87	 9 ;       HGA1      CG311      CG311       HGA1
   32    33    34    35	 9 ;      CG311      CG321     CG2R61     CG2R61
   32    33    34    40	 9 ;      CG311      CG321     CG2R61     CG2R61
   82    33    34    35	 9 ;       HGA2      CG321     CG2R61     CG2R61
   82    33    34    40	 9 ;       HGA2      CG321     CG2R61     CG2R61
   83    33    34    35	 9 ;       HGA2      CG321     CG2R61     CG2R61
   83    33    34    40	 9 ;       HGA2      CG321     CG2R61     CG2R61
   40    34    35    36	 9 ;     CG2R61     CG2R61     CG2R61     CG2R66
   40    34    35    84	 9 ;     CG2R61     CG2R61     CG2R61      HGR62
   33    34    35    36	 9 ;      CG321     CG2R61     CG2R61     CG2R66
   33    34    35    84	 9 ;      CG321     CG2R61     CG2R61      HGR62
   35    34    40    39	 9 ;     CG2R61     CG2R61     CG2R61     CG2R66
   35    34    40    86	 9 ;     CG2R61     CG2R61     CG2R61      HGR62
   33    34    40    39	 9 ;      CG321     CG2R61     CG2R61     CG2R66
   33    34    40    86	 9 ;      CG321     CG2R61     CG2R61      HGR62
   34    35    36    37	 9 ;     CG2R61     CG2R61     CG2R66       FGR1
   34    35    36    38	 9 ;     CG2R61     CG2R61     CG2R66     CG2R61
   84    35    36    37	 9 ;      HGR62     CG2R61     CG2R66       FGR1
   84    35    36    38	 9 ;      HGR62     CG2R61     CG2R66     CG2R61
   37    36    38    39	 9 ;       FGR1     CG2R66     CG2R61     CG2R66
   37    36    38    85	 9 ;       FGR1     CG2R66     CG2R61      HGR62
   35    36    38    39	 9 ;     CG2R61     CG2R66     CG2R61     CG2R66
   35    36    38    85	 9 ;     CG2R61     CG2R66     CG2R61      HGR62
   36    38    39    41	 9 ;     CG2R66     CG2R61     CG2R66       FGR1
   36    38    39    40	 9 ;     CG2R66     CG2R61     CG2R66     CG2R61
   85    38    39    41	 9 ;      HGR62     CG2R61     CG2R66       FGR1
   85    38    39    40	 9 ;      HGR62     CG2R61     CG2R66     CG2R61
   38    39    40    34	 9 ;     CG2R61     CG2R66     CG2R61     CG2R61
   38    39    40    86	 9 ;     CG2R61     CG2R66     CG2R61      HGR62
   41    39    40    34	 9 ;       FGR1     CG2R66     CG2R61     CG2R61
   41    39    40    86	 9 ;       FGR1     CG2R66     CG2R61      HGR62
   32    42    43    44	 9 ;      CG311      CG311      CG324      NG3P2
   32    42    43    88	 9 ;      CG311      CG311      CG324       HGA2
   32    42    43    89	 9 ;      CG311      CG311      CG324       HGA2
   56    42    43    44	 9 ;      OG311      CG311      CG324      NG3P2
   56    42    43    88	 9 ;      OG311      CG311      CG324       HGA2
   56    42    43    89	 9 ;      OG311      CG311      CG324       HGA2
   87    42    43    44	 9 ;       HGA1      CG311      CG324      NG3P2
   87    42    43    88	 9 ;       HGA1      CG311      CG324       HGA2
   87    42    43    89	 9 ;       HGA1      CG311      CG324       HGA2
   32    42    56    57	 9 ;      CG311      CG311      OG311       HGP1
   43    42    56    57	 9 ;      CG324      CG311      OG311       HGP1
   87    42    56    57	 9 ;       HGA1      CG311      OG311       HGP1
   42    43    44    45	 9 ;      CG311      CG324      NG3P2       HGP2
   42    43    44    46	 9 ;      CG311      CG324      NG3P2       HGP2
   42    43    44    47	 9 ;      CG311      CG324      NG3P2      CG324
   88    43    44    45	 9 ;       HGA2      CG324      NG3P2       HGP2
   88    43    44    46	 9 ;       HGA2      CG324      NG3P2       HGP2
   88    43    44    47	 9 ;       HGA2      CG324      NG3P2      CG324
   89    43    44    45	 9 ;       HGA2      CG324      NG3P2       HGP2
   89    43    44    46	 9 ;       HGA2      CG324      NG3P2       HGP2
   89    43    44    47	 9 ;       HGA2      CG324      NG3P2      CG324
   45    44    47    48	 9 ;       HGP2      NG3P2      CG324     CG2R61
   45    44    47    90	 9 ;       HGP2      NG3P2      CG324       HGA2
   45    44    47    91	 9 ;       HGP2      NG3P2      CG324       HGA2
   46    44    47    48	 9 ;       HGP2      NG3P2      CG324     CG2R61
   46    44    47    90	 9 ;       HGP2      NG3P2      CG324       HGA2
   46    44    47    91	 9 ;       HGP2      NG3P2      CG324       HGA2
   43    44    47    48	 9 ;      CG324      NG3P2      CG324     CG2R61
   43    44    47    90	 9 ;      CG324      NG3P2      CG324       HGA2
   43    44    47    91	 9 ;      CG324      NG3P2      CG324       HGA2
   44    47    48    49	 9 ;      NG3P2      CG324     CG2R61     CG2R61
   44    47    48    53	 9 ;      NG3P2      CG324     CG2R61     CG2R61
   90    47    48    49	 9 ;       HGA2      CG324     CG2R61     CG2R61
   90    47    48    53	 9 ;       HGA2      CG324     CG2R61     CG2R61
   91    47    48    49	 9 ;       HGA2      CG324     CG2R61     CG2R61
   91    47    48    53	 9 ;       HGA2      CG324     CG2R61     CG2R61
   47    48    49    50	 9 ;      CG324     CG2R61     CG2R61     CG2R61
   47    48    49    92	 9 ;      CG324     CG2R61     CG2R61      HGR61
   53    48    49    50	 9 ;     CG2R61     CG2R61     CG2R61     CG2R61
   53    48    49    92	 9 ;     CG2R61     CG2R61     CG2R61      HGR61
   49    48    53    52	 9 ;     CG2R61     CG2R61     CG2R61     CG2R61
   49    48    53    95	 9 ;     CG2R61     CG2R61     CG2R61      HGR61
   47    48    53    52	 9 ;      CG324     CG2R61     CG2R61     CG2R61
   47    48    53    95	 9 ;      CG324     CG2R61     CG2R61      HGR61
   48    49    50    54	 9 ;     CG2R61     CG2R61     CG2R61      OG301
   48    49    50    51	 9 ;     CG2R61     CG2R61     CG2R61     CG2R61
   92    49    50    54	 9 ;      HGR61     CG2R61     CG2R61      OG301
   92    49    50    51	 9 ;      HGR61     CG2R61     CG2R61     CG2R61
   49    50    54    55	 9 ;     CG2R61     CG2R61      OG301      CG331
   51    50    54    55	 9 ;     CG2R61     CG2R61      OG301      CG331
   54    50    51    52	 9 ;      OG301     CG2R61     CG2R61     CG2R61
   54    50    51    93	 9 ;      OG301     CG2R61     CG2R61      HGR61
   49    50    51    52	 9 ;     CG2R61     CG2R61     CG2R61     CG2R61
   49    50    51    93	 9 ;     CG2R61     CG2R61     CG2R61      HGR61
   50    51    52    53	 9 ;     CG2R61     CG2R61     CG2R61     CG2R61
   50    51    52    94	 9 ;     CG2R61     CG2R61     CG2R61      HGR61
   93    51    52    53	 9 ;      HGR61     CG2R61     CG2R61     CG2R61
   93    51    52    94	 9 ;      HGR61     CG2R61     CG2R61      HGR61
   51    52    53    48	 9 ;     CG2R61     CG2R61     CG2R61     CG2R61
   51    52    53    95	 9 ;     CG2R61     CG2R61     CG2R61      HGR61
   94    52    53    48	 9 ;      HGR61     CG2R61     CG2R61     CG2R61
   94    52    53    95	 9 ;      HGR61     CG2R61     CG2R61      HGR61
   50    54    55    96	 9 ;     CG2R61      OG301      CG331       HGA3
   50    54    55    97	 9 ;     CG2R61      OG301      CG331       HGA3
   50    54    55    98	 9 ;     CG2R61      OG301      CG331       HGA3

[ dihedrals ]
;	ai	  aj	ak	  al funct			  c0			c1			  c2			c3
    2     5     1     3	 2
   14    12    16    15	 2
   18     9    19    20	 2

