GROningen Mixture of Alchemy and Childrens' Stories
   98
    1LIG     N1    1  -1.783   0.770  -1.599
    1LIG     C1    2  -1.794   0.722  -1.469
    1LIG     O1    3  -1.803   0.799  -1.374
    1LIG     H1    4  -1.748   0.702  -1.666
    1LIG     C2    5  -1.802   0.575  -1.457
    1LIG     C3    6  -1.710   0.477  -1.508
    1LIG     C4    7  -1.588   0.484  -1.581
    1LIG     C5    8  -1.762   0.350  -1.481
    1LIG     C6    9  -1.528   0.367  -1.633
    1LIG     C7   10  -1.585   0.242  -1.606
    1LIG     C8   11  -1.701   0.232  -1.528
    1LIG     N2   12  -1.880   0.365  -1.407
    1LIG     C9   13  -1.908   0.502  -1.403
    1LIG    C10   14  -1.940   0.259  -1.336
    1LIG     O2   15  -1.867   0.187  -1.267
    1LIG     N3   16  -2.078   0.238  -1.355
    1LIG    C11   17  -2.162   0.305  -1.453
    1LIG    C12   18  -1.407   0.383  -1.719
    1LIG     O3   19  -1.406   0.460  -1.814
    1LIG     O4   20  -1.306   0.303  -1.678
    1LIG    C13   21  -1.253   0.329  -1.546
    1LIG    C14   22  -1.186   0.208  -1.484
    1LIG    C15   23  -1.152   0.098  -1.565
    1LIG    C16   24  -1.082  -0.011  -1.512
    1LIG    C17   25  -1.044  -0.011  -1.378
    1LIG    C18   26  -1.076   0.098  -1.297
    1LIG    C19   27  -1.145   0.207  -1.350
    1LIG    C20   28  -2.145   0.141  -1.264
    1LIG    C21   29  -2.164  -0.003  -1.316
    1LIG    C22   30  -2.100  -0.112  -1.231
    1LIG    C23   31  -2.035  -0.055  -1.106
    1LIG    C24   32  -1.773   0.912  -1.641
    1LIG    C25   33  -1.642   0.984  -1.602
    1LIG    C26   34  -1.517   0.903  -1.632
    1LIG    C27   35  -1.460   0.899  -1.760
    1LIG    C28   36  -1.344   0.825  -1.783
    1LIG     F1   37  -1.292   0.822  -1.906
    1LIG    C29   38  -1.283   0.755  -1.681
    1LIG    C30   39  -1.338   0.760  -1.554
    1LIG    C31   40  -1.454   0.834  -1.528
    1LIG     F2   41  -1.280   0.693  -1.453
    1LIG    C32   42  -1.896   1.002  -1.608
    1LIG    C33   43  -2.030   0.944  -1.654
    1LIG     N4   44  -2.011   0.885  -1.791
    1LIG     H2   45  -2.029   0.959  -1.861
    1LIG     H3   46  -1.913   0.860  -1.807
    1LIG    C34   47  -2.095   0.766  -1.820
    1LIG    C35   48  -2.010   0.644  -1.835
    1LIG    C36   49  -1.891   0.650  -1.911
    1LIG    C37   50  -1.806   0.539  -1.917
    1LIG    C38   51  -1.839   0.423  -1.848
    1LIG    C39   52  -1.957   0.415  -1.773
    1LIG    C40   53  -2.042   0.526  -1.767
    1LIG     O5   54  -1.687   0.536  -1.983
    1LIG    C41   55  -1.660   0.420  -2.061
    1LIG     O6   56  -1.910   1.043  -1.472
    1LIG     H4   57  -1.824   1.073  -1.437
    1LIG     HC   58  -1.541   0.579  -1.597
    1LIG    HC1   59  -1.538   0.153  -1.645
    1LIG    HC2   60  -1.742   0.135  -1.504
    1LIG    HC3   61  -1.999   0.545  -1.364
    1LIG    HC4   62  -2.101   0.373  -1.512
    1LIG    HC5   63  -2.208   0.230  -1.518
    1LIG    HC6   64  -2.240   0.361  -1.401
    1LIG    HC7   65  -1.179   0.409  -1.554
    1LIG    HC8   66  -1.334   0.361  -1.481
    1LIG    HC9   67  -1.181   0.097  -1.669
    1LIG   HC10   68  -1.058  -0.095  -1.575
    1LIG   HC11   69  -0.991  -0.096  -1.337
    1LIG   HC12   70  -1.046   0.098  -1.193
    1LIG   HC13   71  -1.168   0.291  -1.287
    1LIG   HC14   72  -2.086   0.135  -1.173
    1LIG   HC15   73  -2.243   0.181  -1.238
    1LIG   HC16   74  -2.122  -0.008  -1.416
    1LIG   HC17   75  -2.271  -0.023  -1.323
    1LIG   HC18   76  -2.177  -0.184  -1.202
    1LIG   HC19   77  -2.024  -0.164  -1.291
    1LIG   HC20   78  -1.995  -0.136  -1.045
    1LIG   HC21   79  -2.109   0.001  -1.048
    1LIG   HC22   80  -1.954   0.012  -1.135
    1LIG   HC23   81  -1.770   0.908  -1.750
    1LIG   HC24   82  -1.645   1.006  -1.495
    1LIG   HC25   83  -1.636   1.078  -1.657
    1LIG   HC26   84  -1.507   0.954  -1.840
    1LIG   HC27   85  -1.194   0.697  -1.700
    1LIG   HC28   86  -1.495   0.836  -1.428
    1LIG   HC29   87  -1.882   1.094  -1.666
    1LIG   HC30   88  -2.105   1.022  -1.657
    1LIG   HC31   89  -2.061   0.865  -1.585
    1LIG   HC32   90  -2.151   0.783  -1.912
    1LIG   HC33   91  -2.165   0.751  -1.737
    1LIG   HC34   92  -1.866   0.740  -1.964
    1LIG   HC35   93  -1.772   0.338  -1.851
    1LIG   HC36   94  -1.982   0.324  -1.721
    1LIG   HC37   95  -2.133   0.520  -1.709
    1LIG   HC38   96  -1.587   0.444  -2.138
    1LIG   HC39   97  -1.620   0.342  -1.997
    1LIG   HC40   98  -1.752   0.386  -2.108
   0.00000   0.00000   0.00000
