; Created by cgenff_charmm2gmx.py

[ moleculetype ]
; Name			   nrexcl
LIG				 3

[ atoms ]
;	 nr		  type	resnr residue  atom   cgnr	   charge		mass  typeB    chargeB		massB
; residue	 1 LIG rtp LIG q	qsum
     1      CG311      1    LIG     C1      1     -0.016     12.011   ;
     2      CG321      1    LIG     C2      2     -0.095     12.011   ;
     3     CG2R61      1    LIG     C3      3      0.057     12.011   ;
     4     CG2R61      1    LIG     C4      4     -0.218     12.011   ;
     5     CG2R66      1    LIG     C5      5      0.261     12.011   ;
     6       FGR1      1    LIG     F1      6     -0.210     18.998   ;
     7     CG2R61      1    LIG     C6      7     -0.240     12.011   ;
     8     CG2R66      1    LIG     C7      8      0.261     12.011   ;
     9     CG2R61      1    LIG     C8      9     -0.218     12.011   ;
    10       FGR1      1    LIG     F2     10     -0.210     18.998   ;
    11      NG2S1      1    LIG     N1     11     -0.226     14.007   ;
    12      CG2O1      1    LIG     C9     12      0.302     12.011   ;
    13      OG2D1      1    LIG     O1     13     -0.463     15.999   ;
    14       HGP1      1    LIG     H1     14      0.262      1.008   ;
    15     CG2R61      1    LIG    C10     15     -0.105     12.011   ;
    16     CG2R61      1    LIG    C11     16     -0.003     12.011   ;
    17     CG2R61      1    LIG    C12     17     -0.164     12.011   ;
    18     CG2R61      1    LIG    C13     18     -0.059     12.011   ;
    19     CG2R61      1    LIG    C14     19     -0.112     12.011   ;
    20     CG2R61      1    LIG    C15     20     -0.060     12.011   ;
    21      CG2O1      1    LIG    C16     21      0.400     12.011   ;
    22      OG2D1      1    LIG     O2     22     -0.476     15.999   ;
    23      NG2S0      1    LIG     N2     23     -0.418     14.007   ;
    24      CG321      1    LIG    C17     24      0.096     12.011   ;
    25      CG321      1    LIG    C18     25     -0.170     12.011   ;
    26      CG331      1    LIG    C19     26     -0.285     12.011   ;
    27      CG321      1    LIG    C20     27      0.096     12.011   ;
    28      CG321      1    LIG    C21     28     -0.170     12.011   ;
    29      CG331      1    LIG    C22     29     -0.285     12.011   ;
    30      CG311      1    LIG    C23     30      0.111     12.011   ;
    31      OG311      1    LIG     O3     31     -0.598     15.999   ;
    32       HGP1      1    LIG     H2     32      0.422      1.008   ;
    33      CG314      1    LIG    C24     33      0.081     12.011   ;
    34      NG3P2      1    LIG     N3     34     -0.494     14.007   ;
    35      CG324      1    LIG    C25     35      0.181     12.011   ;
    36       HGP2      1    LIG     H3     36      0.346      1.008   ;
    37       HGP2      1    LIG     H4     37      0.346      1.008   ;
    38     CG2R61      1    LIG    C26     38      0.019     12.011   ;
    39     CG2R61      1    LIG    C27     39     -0.193     12.011   ;
    40     CG2R61      1    LIG    C28     40     -0.115     12.011   ;
    41      CG321      1    LIG    C29     41      0.138     12.011   ;
    42     CG2R61      1    LIG    C30     42     -0.116     12.011   ;
    43     CG2R61      1    LIG    C31     43     -0.112     12.011   ;
    44     CG2R61      1    LIG    C32     44     -0.111     12.011   ;
    45       HGA1      1    LIG     HC     45      0.090      1.008   ;
    46       HGA2      1    LIG    HC2     46      0.090      1.008   ;
    47       HGA2      1    LIG    HC3     47      0.090      1.008   ;
    48      HGR62      1    LIG    HC1     48      0.174      1.008   ;
    49      HGR62      1    LIG    HC4     49      0.186      1.008   ;
    50      HGR62      1    LIG    HC5     50      0.174      1.008   ;
    51      HGR61      1    LIG    HC6     51      0.116      1.008   ;
    52      HGR61      1    LIG    HC7     52      0.116      1.008   ;
    53      HGR61      1    LIG    HC8     53      0.116      1.008   ;
    54      HGR61      1    LIG    HC9     54      0.116      1.008   ;
    55       HGA2      1    LIG   HC10     55      0.090      1.008   ;
    56       HGA2      1    LIG   HC11     56      0.090      1.008   ;
    57       HGA2      1    LIG   HC12     57      0.090      1.008   ;
    58       HGA2      1    LIG   HC13     58      0.090      1.008   ;
    59       HGA3      1    LIG   HC14     59      0.090      1.008   ;
    60       HGA3      1    LIG   HC15     60      0.090      1.008   ;
    61       HGA3      1    LIG   HC16     61      0.090      1.008   ;
    62       HGA2      1    LIG   HC17     62      0.090      1.008   ;
    63       HGA2      1    LIG   HC18     63      0.090      1.008   ;
    64       HGA2      1    LIG   HC19     64      0.090      1.008   ;
    65       HGA2      1    LIG   HC20     65      0.090      1.008   ;
    66       HGA3      1    LIG   HC21     66      0.090      1.008   ;
    67       HGA3      1    LIG   HC22     67      0.090      1.008   ;
    68       HGA3      1    LIG   HC23     68      0.090      1.008   ;
    69       HGA1      1    LIG   HC24     69      0.090      1.008   ;
    70       HGA1      1    LIG   HC25     70      0.121      1.008   ;
    71       HGA2      1    LIG   HC26     71      0.090      1.008   ;
    72       HGA2      1    LIG   HC27     72      0.090      1.008   ;
    73      HGR61      1    LIG   HC28     73      0.116      1.008   ;
    74       HGA2      1    LIG   HC29     74      0.090      1.008   ;
    75       HGA2      1    LIG   HC30     75      0.090      1.008   ;
    76      HGR61      1    LIG   HC31     76      0.116      1.008   ;
    77      HGR61      1    LIG   HC32     77      0.116      1.008   ;
    78      HGR61      1    LIG   HC33     78      0.116      1.008   ;

[ bonds ]
;	ai	  aj funct			  c0			c1			  c2			c3
    1    30	 1 ;       CG311      CG311
    1     2	 1 ;       CG311      CG321
    1    11	 1 ;       CG311      NG2S1
    1    45	 1 ;       CG311       HGA1
    2     3	 1 ;       CG321     CG2R61
    2    46	 1 ;       CG321       HGA2
    2    47	 1 ;       CG321       HGA2
    3     9	 1 ;      CG2R61     CG2R61
    3     4	 1 ;      CG2R61     CG2R61
    4     5	 1 ;      CG2R61     CG2R66
    4    48	 1 ;      CG2R61      HGR62
    5     7	 1 ;      CG2R66     CG2R61
    5     6	 1 ;      CG2R66       FGR1
    7     8	 1 ;      CG2R61     CG2R66
    7    49	 1 ;      CG2R61      HGR62
    8    10	 1 ;      CG2R66       FGR1
    8     9	 1 ;      CG2R66     CG2R61
    9    50	 1 ;      CG2R61      HGR62
   11    14	 1 ;       NG2S1       HGP1
   11    12	 1 ;       NG2S1      CG2O1
   12    13	 1 ;       CG2O1      OG2D1
   12    15	 1 ;       CG2O1     CG2R61
   15    20	 1 ;      CG2R61     CG2R61
   15    16	 1 ;      CG2R61     CG2R61
   16    17	 1 ;      CG2R61     CG2R61
   16    51	 1 ;      CG2R61      HGR61
   17    18	 1 ;      CG2R61     CG2R61
   17    21	 1 ;      CG2R61      CG2O1
   18    19	 1 ;      CG2R61     CG2R61
   18    52	 1 ;      CG2R61      HGR61
   19    20	 1 ;      CG2R61     CG2R61
   19    53	 1 ;      CG2R61      HGR61
   20    54	 1 ;      CG2R61      HGR61
   21    22	 1 ;       CG2O1      OG2D1
   21    23	 1 ;       CG2O1      NG2S0
   23    24	 1 ;       NG2S0      CG321
   23    27	 1 ;       NG2S0      CG321
   24    25	 1 ;       CG321      CG321
   24    55	 1 ;       CG321       HGA2
   24    56	 1 ;       CG321       HGA2
   25    26	 1 ;       CG321      CG331
   25    57	 1 ;       CG321       HGA2
   25    58	 1 ;       CG321       HGA2
   26    59	 1 ;       CG331       HGA3
   26    60	 1 ;       CG331       HGA3
   26    61	 1 ;       CG331       HGA3
   27    28	 1 ;       CG321      CG321
   27    62	 1 ;       CG321       HGA2
   27    63	 1 ;       CG321       HGA2
   28    29	 1 ;       CG321      CG331
   28    64	 1 ;       CG321       HGA2
   28    65	 1 ;       CG321       HGA2
   29    66	 1 ;       CG331       HGA3
   29    67	 1 ;       CG331       HGA3
   29    68	 1 ;       CG331       HGA3
   30    33	 1 ;       CG311      CG314
   30    31	 1 ;       CG311      OG311
   30    69	 1 ;       CG311       HGA1
   31    32	 1 ;       OG311       HGP1
   33    41	 1 ;       CG314      CG321
   33    34	 1 ;       CG314      NG3P2
   33    70	 1 ;       CG314       HGA1
   34    35	 1 ;       NG3P2      CG324
   34    37	 1 ;       NG3P2       HGP2
   34    36	 1 ;       NG3P2       HGP2
   35    38	 1 ;       CG324     CG2R61
   35    71	 1 ;       CG324       HGA2
   35    72	 1 ;       CG324       HGA2
   38    40	 1 ;      CG2R61     CG2R61
   38    39	 1 ;      CG2R61     CG2R61
   39    42	 1 ;      CG2R61     CG2R61
   39    41	 1 ;      CG2R61      CG321
   40    44	 1 ;      CG2R61     CG2R61
   40    73	 1 ;      CG2R61      HGR61
   41    74	 1 ;       CG321       HGA2
   41    75	 1 ;       CG321       HGA2
   42    43	 1 ;      CG2R61     CG2R61
   42    76	 1 ;      CG2R61      HGR61
   43    44	 1 ;      CG2R61     CG2R61
   43    77	 1 ;      CG2R61      HGR61
   44    78	 1 ;      CG2R61      HGR61

[ pairs ]
;	ai	  aj funct			  c0			c1			  c2			c3
    1     9	 1
    1     4	 1
    1    13	 1
    1    15	 1
    1    41	 1
    1    34	 1
    1    70	 1
    1    32	 1
    2    33	 1
    2    31	 1
    2    69	 1
    2    14	 1
    2    12	 1
    2     8	 1
    2    50	 1
    2     5	 1
    2    48	 1
    3    30	 1
    3    11	 1
    3    45	 1
    3     7	 1
    3     6	 1
    3    10	 1
    4    46	 1
    4    47	 1
    4     8	 1
    4    50	 1
    4    49	 1
    5     9	 1
    5    10	 1
    6    48	 1
    6     8	 1
    6    49	 1
    7    48	 1
    7    50	 1
    9    46	 1
    9    47	 1
    9    48	 1
    9    49	 1
   10    49	 1
   10    50	 1
   11    33	 1
   11    31	 1
   11    69	 1
   11    46	 1
   11    47	 1
   11    20	 1
   11    16	 1
   12    30	 1
   12    45	 1
   12    19	 1
   12    54	 1
   12    17	 1
   12    51	 1
   13    14	 1
   13    20	 1
   13    16	 1
   14    30	 1
   14    45	 1
   14    15	 1
   15    18	 1
   15    21	 1
   15    53	 1
   16    19	 1
   16    54	 1
   16    52	 1
   16    22	 1
   16    23	 1
   17    20	 1
   17    53	 1
   17    24	 1
   17    27	 1
   18    51	 1
   18    22	 1
   18    23	 1
   18    54	 1
   19    21	 1
   20    51	 1
   20    52	 1
   21    51	 1
   21    52	 1
   21    25	 1
   21    55	 1
   21    56	 1
   21    28	 1
   21    62	 1
   21    63	 1
   22    24	 1
   22    27	 1
   23    26	 1
   23    57	 1
   23    58	 1
   23    29	 1
   23    64	 1
   23    65	 1
   24    28	 1
   24    62	 1
   24    63	 1
   24    59	 1
   24    60	 1
   24    61	 1
   25    27	 1
   26    55	 1
   26    56	 1
   27    55	 1
   27    56	 1
   27    66	 1
   27    67	 1
   27    68	 1
   29    62	 1
   29    63	 1
   30    46	 1
   30    47	 1
   30    39	 1
   30    74	 1
   30    75	 1
   30    35	 1
   30    37	 1
   30    36	 1
   31    45	 1
   31    41	 1
   31    34	 1
   31    70	 1
   32    33	 1
   32    69	 1
   33    45	 1
   33    38	 1
   33    71	 1
   33    72	 1
   33    42	 1
   34    69	 1
   34    39	 1
   34    74	 1
   34    75	 1
   34    40	 1
   35    41	 1
   35    70	 1
   35    44	 1
   35    73	 1
   35    42	 1
   36    41	 1
   36    70	 1
   36    38	 1
   36    71	 1
   36    72	 1
   37    41	 1
   37    70	 1
   37    38	 1
   37    71	 1
   37    72	 1
   38    43	 1
   38    76	 1
   38    74	 1
   38    75	 1
   38    78	 1
   39    70	 1
   39    71	 1
   39    72	 1
   39    44	 1
   39    73	 1
   39    77	 1
   40    71	 1
   40    72	 1
   40    42	 1
   40    41	 1
   40    77	 1
   41    69	 1
   41    43	 1
   41    76	 1
   42    74	 1
   42    75	 1
   42    78	 1
   43    73	 1
   44    76	 1
   45    69	 1
   45    46	 1
   45    47	 1
   52    53	 1
   53    54	 1
   55    57	 1
   55    58	 1
   56    57	 1
   56    58	 1
   57    59	 1
   57    60	 1
   57    61	 1
   58    59	 1
   58    60	 1
   58    61	 1
   62    64	 1
   62    65	 1
   63    64	 1
   63    65	 1
   64    66	 1
   64    67	 1
   64    68	 1
   65    66	 1
   65    67	 1
   65    68	 1
   69    70	 1
   70    74	 1
   70    75	 1
   73    78	 1
   76    77	 1
   77    78	 1

[ angles ]
;	ai	  aj	ak funct			c0			  c1			c2			  c3
   30     1     2	5 ;      CG311      CG311      CG321
   30     1    11	5 ;      CG311      CG311      NG2S1
   30     1    45	5 ;      CG311      CG311       HGA1
    2     1    11	5 ;      CG321      CG311      NG2S1
    2     1    45	5 ;      CG321      CG311       HGA1
   11     1    45	5 ;      NG2S1      CG311       HGA1
    3     2     1	5 ;     CG2R61      CG321      CG311
    3     2    46	5 ;     CG2R61      CG321       HGA2
    3     2    47	5 ;     CG2R61      CG321       HGA2
    1     2    46	5 ;      CG311      CG321       HGA2
    1     2    47	5 ;      CG311      CG321       HGA2
   46     2    47	5 ;       HGA2      CG321       HGA2
    9     3     4	5 ;     CG2R61     CG2R61     CG2R61
    9     3     2	5 ;     CG2R61     CG2R61      CG321
    4     3     2	5 ;     CG2R61     CG2R61      CG321
    5     4     3	5 ;     CG2R66     CG2R61     CG2R61
    5     4    48	5 ;     CG2R66     CG2R61      HGR62
    3     4    48	5 ;     CG2R61     CG2R61      HGR62
    7     5     6	5 ;     CG2R61     CG2R66       FGR1
    7     5     4	5 ;     CG2R61     CG2R66     CG2R61
    6     5     4	5 ;       FGR1     CG2R66     CG2R61
    8     7     5	5 ;     CG2R66     CG2R61     CG2R66
    8     7    49	5 ;     CG2R66     CG2R61      HGR62
    5     7    49	5 ;     CG2R66     CG2R61      HGR62
   10     8     7	5 ;       FGR1     CG2R66     CG2R61
   10     8     9	5 ;       FGR1     CG2R66     CG2R61
    7     8     9	5 ;     CG2R61     CG2R66     CG2R61
    8     9     3	5 ;     CG2R66     CG2R61     CG2R61
    8     9    50	5 ;     CG2R66     CG2R61      HGR62
    3     9    50	5 ;     CG2R61     CG2R61      HGR62
    1    11    14	5 ;      CG311      NG2S1       HGP1
    1    11    12	5 ;      CG311      NG2S1      CG2O1
   14    11    12	5 ;       HGP1      NG2S1      CG2O1
   11    12    13	5 ;      NG2S1      CG2O1      OG2D1
   11    12    15	5 ;      NG2S1      CG2O1     CG2R61
   13    12    15	5 ;      OG2D1      CG2O1     CG2R61
   12    15    20	5 ;      CG2O1     CG2R61     CG2R61
   12    15    16	5 ;      CG2O1     CG2R61     CG2R61
   20    15    16	5 ;     CG2R61     CG2R61     CG2R61
   15    16    17	5 ;     CG2R61     CG2R61     CG2R61
   15    16    51	5 ;     CG2R61     CG2R61      HGR61
   17    16    51	5 ;     CG2R61     CG2R61      HGR61
   16    17    18	5 ;     CG2R61     CG2R61     CG2R61
   16    17    21	5 ;     CG2R61     CG2R61      CG2O1
   18    17    21	5 ;     CG2R61     CG2R61      CG2O1
   19    18    17	5 ;     CG2R61     CG2R61     CG2R61
   19    18    52	5 ;     CG2R61     CG2R61      HGR61
   17    18    52	5 ;     CG2R61     CG2R61      HGR61
   20    19    18	5 ;     CG2R61     CG2R61     CG2R61
   20    19    53	5 ;     CG2R61     CG2R61      HGR61
   18    19    53	5 ;     CG2R61     CG2R61      HGR61
   15    20    19	5 ;     CG2R61     CG2R61     CG2R61
   15    20    54	5 ;     CG2R61     CG2R61      HGR61
   19    20    54	5 ;     CG2R61     CG2R61      HGR61
   17    21    22	5 ;     CG2R61      CG2O1      OG2D1
   17    21    23	5 ;     CG2R61      CG2O1      NG2S0
   22    21    23	5 ;      OG2D1      CG2O1      NG2S0
   21    23    24	5 ;      CG2O1      NG2S0      CG321
   21    23    27	5 ;      CG2O1      NG2S0      CG321
   24    23    27	5 ;      CG321      NG2S0      CG321
   23    24    25	5 ;      NG2S0      CG321      CG321
   23    24    55	5 ;      NG2S0      CG321       HGA2
   23    24    56	5 ;      NG2S0      CG321       HGA2
   25    24    55	5 ;      CG321      CG321       HGA2
   25    24    56	5 ;      CG321      CG321       HGA2
   55    24    56	5 ;       HGA2      CG321       HGA2
   24    25    26	5 ;      CG321      CG321      CG331
   24    25    57	5 ;      CG321      CG321       HGA2
   24    25    58	5 ;      CG321      CG321       HGA2
   26    25    57	5 ;      CG331      CG321       HGA2
   26    25    58	5 ;      CG331      CG321       HGA2
   57    25    58	5 ;       HGA2      CG321       HGA2
   25    26    59	5 ;      CG321      CG331       HGA3
   25    26    60	5 ;      CG321      CG331       HGA3
   25    26    61	5 ;      CG321      CG331       HGA3
   59    26    60	5 ;       HGA3      CG331       HGA3
   59    26    61	5 ;       HGA3      CG331       HGA3
   60    26    61	5 ;       HGA3      CG331       HGA3
   23    27    28	5 ;      NG2S0      CG321      CG321
   23    27    62	5 ;      NG2S0      CG321       HGA2
   23    27    63	5 ;      NG2S0      CG321       HGA2
   28    27    62	5 ;      CG321      CG321       HGA2
   28    27    63	5 ;      CG321      CG321       HGA2
   62    27    63	5 ;       HGA2      CG321       HGA2
   27    28    29	5 ;      CG321      CG321      CG331
   27    28    64	5 ;      CG321      CG321       HGA2
   27    28    65	5 ;      CG321      CG321       HGA2
   29    28    64	5 ;      CG331      CG321       HGA2
   29    28    65	5 ;      CG331      CG321       HGA2
   64    28    65	5 ;       HGA2      CG321       HGA2
   28    29    66	5 ;      CG321      CG331       HGA3
   28    29    67	5 ;      CG321      CG331       HGA3
   28    29    68	5 ;      CG321      CG331       HGA3
   66    29    67	5 ;       HGA3      CG331       HGA3
   66    29    68	5 ;       HGA3      CG331       HGA3
   67    29    68	5 ;       HGA3      CG331       HGA3
   33    30    31	5 ;      CG314      CG311      OG311
   33    30     1	5 ;      CG314      CG311      CG311
   33    30    69	5 ;      CG314      CG311       HGA1
   31    30     1	5 ;      OG311      CG311      CG311
   31    30    69	5 ;      OG311      CG311       HGA1
    1    30    69	5 ;      CG311      CG311       HGA1
   30    31    32	5 ;      CG311      OG311       HGP1
   41    33    34	5 ;      CG321      CG314      NG3P2
   41    33    30	5 ;      CG321      CG314      CG311
   41    33    70	5 ;      CG321      CG314       HGA1
   34    33    30	5 ;      NG3P2      CG314      CG311
   34    33    70	5 ;      NG3P2      CG314       HGA1
   30    33    70	5 ;      CG311      CG314       HGA1
   35    34    37	5 ;      CG324      NG3P2       HGP2
   35    34    33	5 ;      CG324      NG3P2      CG314
   35    34    36	5 ;      CG324      NG3P2       HGP2
   37    34    33	5 ;       HGP2      NG3P2      CG314
   37    34    36	5 ;       HGP2      NG3P2       HGP2
   33    34    36	5 ;      CG314      NG3P2       HGP2
   38    35    34	5 ;     CG2R61      CG324      NG3P2
   38    35    71	5 ;     CG2R61      CG324       HGA2
   38    35    72	5 ;     CG2R61      CG324       HGA2
   34    35    71	5 ;      NG3P2      CG324       HGA2
   34    35    72	5 ;      NG3P2      CG324       HGA2
   71    35    72	5 ;       HGA2      CG324       HGA2
   40    38    39	5 ;     CG2R61     CG2R61     CG2R61
   40    38    35	5 ;     CG2R61     CG2R61      CG324
   39    38    35	5 ;     CG2R61     CG2R61      CG324
   42    39    38	5 ;     CG2R61     CG2R61     CG2R61
   42    39    41	5 ;     CG2R61     CG2R61      CG321
   38    39    41	5 ;     CG2R61     CG2R61      CG321
   44    40    38	5 ;     CG2R61     CG2R61     CG2R61
   44    40    73	5 ;     CG2R61     CG2R61      HGR61
   38    40    73	5 ;     CG2R61     CG2R61      HGR61
   39    41    33	5 ;     CG2R61      CG321      CG314
   39    41    74	5 ;     CG2R61      CG321       HGA2
   39    41    75	5 ;     CG2R61      CG321       HGA2
   33    41    74	5 ;      CG314      CG321       HGA2
   33    41    75	5 ;      CG314      CG321       HGA2
   74    41    75	5 ;       HGA2      CG321       HGA2
   43    42    39	5 ;     CG2R61     CG2R61     CG2R61
   43    42    76	5 ;     CG2R61     CG2R61      HGR61
   39    42    76	5 ;     CG2R61     CG2R61      HGR61
   44    43    42	5 ;     CG2R61     CG2R61     CG2R61
   44    43    77	5 ;     CG2R61     CG2R61      HGR61
   42    43    77	5 ;     CG2R61     CG2R61      HGR61
   43    44    40	5 ;     CG2R61     CG2R61     CG2R61
   43    44    78	5 ;     CG2R61     CG2R61      HGR61
   40    44    78	5 ;     CG2R61     CG2R61      HGR61

[ dihedrals ]
;	ai	  aj	ak	  al funct			  c0			c1			  c2			c3			  c4			c5
    2     1    30    33	 9 ;      CG321      CG311      CG311      CG314
    2     1    30    31	 9 ;      CG321      CG311      CG311      OG311
    2     1    30    69	 9 ;      CG321      CG311      CG311       HGA1
   11     1    30    33	 9 ;      NG2S1      CG311      CG311      CG314
   11     1    30    31	 9 ;      NG2S1      CG311      CG311      OG311
   11     1    30    69	 9 ;      NG2S1      CG311      CG311       HGA1
   45     1    30    33	 9 ;       HGA1      CG311      CG311      CG314
   45     1    30    31	 9 ;       HGA1      CG311      CG311      OG311
   45     1    30    69	 9 ;       HGA1      CG311      CG311       HGA1
   30     1     2     3	 9 ;      CG311      CG311      CG321     CG2R61
   30     1     2    46	 9 ;      CG311      CG311      CG321       HGA2
   30     1     2    47	 9 ;      CG311      CG311      CG321       HGA2
   11     1     2     3	 9 ;      NG2S1      CG311      CG321     CG2R61
   11     1     2    46	 9 ;      NG2S1      CG311      CG321       HGA2
   11     1     2    47	 9 ;      NG2S1      CG311      CG321       HGA2
   45     1     2     3	 9 ;       HGA1      CG311      CG321     CG2R61
   45     1     2    46	 9 ;       HGA1      CG311      CG321       HGA2
   45     1     2    47	 9 ;       HGA1      CG311      CG321       HGA2
   30     1    11    14	 9 ;      CG311      CG311      NG2S1       HGP1
   30     1    11    12	 9 ;      CG311      CG311      NG2S1      CG2O1
    2     1    11    14	 9 ;      CG321      CG311      NG2S1       HGP1
    2     1    11    12	 9 ;      CG321      CG311      NG2S1      CG2O1
   45     1    11    14	 9 ;       HGA1      CG311      NG2S1       HGP1
   45     1    11    12	 9 ;       HGA1      CG311      NG2S1      CG2O1
    1     2     3     9	 9 ;      CG311      CG321     CG2R61     CG2R61
    1     2     3     4	 9 ;      CG311      CG321     CG2R61     CG2R61
   46     2     3     9	 9 ;       HGA2      CG321     CG2R61     CG2R61
   46     2     3     4	 9 ;       HGA2      CG321     CG2R61     CG2R61
   47     2     3     9	 9 ;       HGA2      CG321     CG2R61     CG2R61
   47     2     3     4	 9 ;       HGA2      CG321     CG2R61     CG2R61
    4     3     9     8	 9 ;     CG2R61     CG2R61     CG2R61     CG2R66
    4     3     9    50	 9 ;     CG2R61     CG2R61     CG2R61      HGR62
    2     3     9     8	 9 ;      CG321     CG2R61     CG2R61     CG2R66
    2     3     9    50	 9 ;      CG321     CG2R61     CG2R61      HGR62
    9     3     4     5	 9 ;     CG2R61     CG2R61     CG2R61     CG2R66
    9     3     4    48	 9 ;     CG2R61     CG2R61     CG2R61      HGR62
    2     3     4     5	 9 ;      CG321     CG2R61     CG2R61     CG2R66
    2     3     4    48	 9 ;      CG321     CG2R61     CG2R61      HGR62
    3     4     5     7	 9 ;     CG2R61     CG2R61     CG2R66     CG2R61
    3     4     5     6	 9 ;     CG2R61     CG2R61     CG2R66       FGR1
   48     4     5     7	 9 ;      HGR62     CG2R61     CG2R66     CG2R61
   48     4     5     6	 9 ;      HGR62     CG2R61     CG2R66       FGR1
    6     5     7     8	 9 ;       FGR1     CG2R66     CG2R61     CG2R66
    6     5     7    49	 9 ;       FGR1     CG2R66     CG2R61      HGR62
    4     5     7     8	 9 ;     CG2R61     CG2R66     CG2R61     CG2R66
    4     5     7    49	 9 ;     CG2R61     CG2R66     CG2R61      HGR62
    5     7     8    10	 9 ;     CG2R66     CG2R61     CG2R66       FGR1
    5     7     8     9	 9 ;     CG2R66     CG2R61     CG2R66     CG2R61
   49     7     8    10	 9 ;      HGR62     CG2R61     CG2R66       FGR1
   49     7     8     9	 9 ;      HGR62     CG2R61     CG2R66     CG2R61
   10     8     9     3	 9 ;       FGR1     CG2R66     CG2R61     CG2R61
   10     8     9    50	 9 ;       FGR1     CG2R66     CG2R61      HGR62
    7     8     9     3	 9 ;     CG2R61     CG2R66     CG2R61     CG2R61
    7     8     9    50	 9 ;     CG2R61     CG2R66     CG2R61      HGR62
    1    11    12    13	 9 ;      CG311      NG2S1      CG2O1      OG2D1
    1    11    12    15	 9 ;      CG311      NG2S1      CG2O1     CG2R61
   14    11    12    13	 9 ;       HGP1      NG2S1      CG2O1      OG2D1
   14    11    12    15	 9 ;       HGP1      NG2S1      CG2O1     CG2R61
   11    12    15    20	 9 ;      NG2S1      CG2O1     CG2R61     CG2R61
   11    12    15    16	 9 ;      NG2S1      CG2O1     CG2R61     CG2R61
   13    12    15    20	 9 ;      OG2D1      CG2O1     CG2R61     CG2R61
   13    12    15    16	 9 ;      OG2D1      CG2O1     CG2R61     CG2R61
   12    15    20    19	 9 ;      CG2O1     CG2R61     CG2R61     CG2R61
   12    15    20    54	 9 ;      CG2O1     CG2R61     CG2R61      HGR61
   16    15    20    19	 9 ;     CG2R61     CG2R61     CG2R61     CG2R61
   16    15    20    54	 9 ;     CG2R61     CG2R61     CG2R61      HGR61
   12    15    16    17	 9 ;      CG2O1     CG2R61     CG2R61     CG2R61
   12    15    16    51	 9 ;      CG2O1     CG2R61     CG2R61      HGR61
   20    15    16    17	 9 ;     CG2R61     CG2R61     CG2R61     CG2R61
   20    15    16    51	 9 ;     CG2R61     CG2R61     CG2R61      HGR61
   15    16    17    18	 9 ;     CG2R61     CG2R61     CG2R61     CG2R61
   15    16    17    21	 9 ;     CG2R61     CG2R61     CG2R61      CG2O1
   51    16    17    18	 9 ;      HGR61     CG2R61     CG2R61     CG2R61
   51    16    17    21	 9 ;      HGR61     CG2R61     CG2R61      CG2O1
   16    17    18    19	 9 ;     CG2R61     CG2R61     CG2R61     CG2R61
   16    17    18    52	 9 ;     CG2R61     CG2R61     CG2R61      HGR61
   21    17    18    19	 9 ;      CG2O1     CG2R61     CG2R61     CG2R61
   21    17    18    52	 9 ;      CG2O1     CG2R61     CG2R61      HGR61
   16    17    21    22	 9 ;     CG2R61     CG2R61      CG2O1      OG2D1
   16    17    21    23	 9 ;     CG2R61     CG2R61      CG2O1      NG2S0
   18    17    21    22	 9 ;     CG2R61     CG2R61      CG2O1      OG2D1
   18    17    21    23	 9 ;     CG2R61     CG2R61      CG2O1      NG2S0
   17    18    19    20	 9 ;     CG2R61     CG2R61     CG2R61     CG2R61
   17    18    19    53	 9 ;     CG2R61     CG2R61     CG2R61      HGR61
   52    18    19    20	 9 ;      HGR61     CG2R61     CG2R61     CG2R61
   52    18    19    53	 9 ;      HGR61     CG2R61     CG2R61      HGR61
   18    19    20    15	 9 ;     CG2R61     CG2R61     CG2R61     CG2R61
   18    19    20    54	 9 ;     CG2R61     CG2R61     CG2R61      HGR61
   53    19    20    15	 9 ;      HGR61     CG2R61     CG2R61     CG2R61
   53    19    20    54	 9 ;      HGR61     CG2R61     CG2R61      HGR61
   17    21    23    24	 9 ;     CG2R61      CG2O1      NG2S0      CG321
   17    21    23    27	 9 ;     CG2R61      CG2O1      NG2S0      CG321
   22    21    23    24	 9 ;      OG2D1      CG2O1      NG2S0      CG321
   22    21    23    27	 9 ;      OG2D1      CG2O1      NG2S0      CG321
   21    23    24    25	 9 ;      CG2O1      NG2S0      CG321      CG321
   21    23    24    55	 9 ;      CG2O1      NG2S0      CG321       HGA2
   21    23    24    56	 9 ;      CG2O1      NG2S0      CG321       HGA2
   27    23    24    25	 9 ;      CG321      NG2S0      CG321      CG321
   27    23    24    55	 9 ;      CG321      NG2S0      CG321       HGA2
   27    23    24    56	 9 ;      CG321      NG2S0      CG321       HGA2
   21    23    27    28	 9 ;      CG2O1      NG2S0      CG321      CG321
   21    23    27    62	 9 ;      CG2O1      NG2S0      CG321       HGA2
   21    23    27    63	 9 ;      CG2O1      NG2S0      CG321       HGA2
   24    23    27    28	 9 ;      CG321      NG2S0      CG321      CG321
   24    23    27    62	 9 ;      CG321      NG2S0      CG321       HGA2
   24    23    27    63	 9 ;      CG321      NG2S0      CG321       HGA2
   23    24    25    26	 9 ;      NG2S0      CG321      CG321      CG331
   23    24    25    57	 9 ;      NG2S0      CG321      CG321       HGA2
   23    24    25    58	 9 ;      NG2S0      CG321      CG321       HGA2
   55    24    25    26	 9 ;       HGA2      CG321      CG321      CG331
   55    24    25    57	 9 ;       HGA2      CG321      CG321       HGA2
   55    24    25    58	 9 ;       HGA2      CG321      CG321       HGA2
   56    24    25    26	 9 ;       HGA2      CG321      CG321      CG331
   56    24    25    57	 9 ;       HGA2      CG321      CG321       HGA2
   56    24    25    58	 9 ;       HGA2      CG321      CG321       HGA2
   24    25    26    59	 9 ;      CG321      CG321      CG331       HGA3
   24    25    26    60	 9 ;      CG321      CG321      CG331       HGA3
   24    25    26    61	 9 ;      CG321      CG321      CG331       HGA3
   57    25    26    59	 9 ;       HGA2      CG321      CG331       HGA3
   57    25    26    60	 9 ;       HGA2      CG321      CG331       HGA3
   57    25    26    61	 9 ;       HGA2      CG321      CG331       HGA3
   58    25    26    59	 9 ;       HGA2      CG321      CG331       HGA3
   58    25    26    60	 9 ;       HGA2      CG321      CG331       HGA3
   58    25    26    61	 9 ;       HGA2      CG321      CG331       HGA3
   23    27    28    29	 9 ;      NG2S0      CG321      CG321      CG331
   23    27    28    64	 9 ;      NG2S0      CG321      CG321       HGA2
   23    27    28    65	 9 ;      NG2S0      CG321      CG321       HGA2
   62    27    28    29	 9 ;       HGA2      CG321      CG321      CG331
   62    27    28    64	 9 ;       HGA2      CG321      CG321       HGA2
   62    27    28    65	 9 ;       HGA2      CG321      CG321       HGA2
   63    27    28    29	 9 ;       HGA2      CG321      CG321      CG331
   63    27    28    64	 9 ;       HGA2      CG321      CG321       HGA2
   63    27    28    65	 9 ;       HGA2      CG321      CG321       HGA2
   27    28    29    66	 9 ;      CG321      CG321      CG331       HGA3
   27    28    29    67	 9 ;      CG321      CG321      CG331       HGA3
   27    28    29    68	 9 ;      CG321      CG321      CG331       HGA3
   64    28    29    66	 9 ;       HGA2      CG321      CG331       HGA3
   64    28    29    67	 9 ;       HGA2      CG321      CG331       HGA3
   64    28    29    68	 9 ;       HGA2      CG321      CG331       HGA3
   65    28    29    66	 9 ;       HGA2      CG321      CG331       HGA3
   65    28    29    67	 9 ;       HGA2      CG321      CG331       HGA3
   65    28    29    68	 9 ;       HGA2      CG321      CG331       HGA3
   31    30    33    41	 9 ;      OG311      CG311      CG314      CG321
   31    30    33    34	 9 ;      OG311      CG311      CG314      NG3P2
   31    30    33    70	 9 ;      OG311      CG311      CG314       HGA1
    1    30    33    41	 9 ;      CG311      CG311      CG314      CG321
    1    30    33    34	 9 ;      CG311      CG311      CG314      NG3P2
    1    30    33    70	 9 ;      CG311      CG311      CG314       HGA1
   69    30    33    41	 9 ;       HGA1      CG311      CG314      CG321
   69    30    33    34	 9 ;       HGA1      CG311      CG314      NG3P2
   69    30    33    70	 9 ;       HGA1      CG311      CG314       HGA1
   33    30    31    32	 9 ;      CG314      CG311      OG311       HGP1
    1    30    31    32	 9 ;      CG311      CG311      OG311       HGP1
   69    30    31    32	 9 ;       HGA1      CG311      OG311       HGP1
   34    33    41    39	 9 ;      NG3P2      CG314      CG321     CG2R61
   34    33    41    74	 9 ;      NG3P2      CG314      CG321       HGA2
   34    33    41    75	 9 ;      NG3P2      CG314      CG321       HGA2
   30    33    41    39	 9 ;      CG311      CG314      CG321     CG2R61
   30    33    41    74	 9 ;      CG311      CG314      CG321       HGA2
   30    33    41    75	 9 ;      CG311      CG314      CG321       HGA2
   70    33    41    39	 9 ;       HGA1      CG314      CG321     CG2R61
   70    33    41    74	 9 ;       HGA1      CG314      CG321       HGA2
   70    33    41    75	 9 ;       HGA1      CG314      CG321       HGA2
   41    33    34    35	 9 ;      CG321      CG314      NG3P2      CG324
   41    33    34    37	 9 ;      CG321      CG314      NG3P2       HGP2
   41    33    34    36	 9 ;      CG321      CG314      NG3P2       HGP2
   30    33    34    35	 9 ;      CG311      CG314      NG3P2      CG324
   30    33    34    37	 9 ;      CG311      CG314      NG3P2       HGP2
   30    33    34    36	 9 ;      CG311      CG314      NG3P2       HGP2
   70    33    34    35	 9 ;       HGA1      CG314      NG3P2      CG324
   70    33    34    37	 9 ;       HGA1      CG314      NG3P2       HGP2
   70    33    34    36	 9 ;       HGA1      CG314      NG3P2       HGP2
   37    34    35    38	 9 ;       HGP2      NG3P2      CG324     CG2R61
   37    34    35    71	 9 ;       HGP2      NG3P2      CG324       HGA2
   37    34    35    72	 9 ;       HGP2      NG3P2      CG324       HGA2
   33    34    35    38	 9 ;      CG314      NG3P2      CG324     CG2R61
   33    34    35    71	 9 ;      CG314      NG3P2      CG324       HGA2
   33    34    35    72	 9 ;      CG314      NG3P2      CG324       HGA2
   36    34    35    38	 9 ;       HGP2      NG3P2      CG324     CG2R61
   36    34    35    71	 9 ;       HGP2      NG3P2      CG324       HGA2
   36    34    35    72	 9 ;       HGP2      NG3P2      CG324       HGA2
   34    35    38    40	 9 ;      NG3P2      CG324     CG2R61     CG2R61
   34    35    38    39	 9 ;      NG3P2      CG324     CG2R61     CG2R61
   71    35    38    40	 9 ;       HGA2      CG324     CG2R61     CG2R61
   71    35    38    39	 9 ;       HGA2      CG324     CG2R61     CG2R61
   72    35    38    40	 9 ;       HGA2      CG324     CG2R61     CG2R61
   72    35    38    39	 9 ;       HGA2      CG324     CG2R61     CG2R61
   39    38    40    44	 9 ;     CG2R61     CG2R61     CG2R61     CG2R61
   39    38    40    73	 9 ;     CG2R61     CG2R61     CG2R61      HGR61
   35    38    40    44	 9 ;      CG324     CG2R61     CG2R61     CG2R61
   35    38    40    73	 9 ;      CG324     CG2R61     CG2R61      HGR61
   40    38    39    42	 9 ;     CG2R61     CG2R61     CG2R61     CG2R61
   40    38    39    41	 9 ;     CG2R61     CG2R61     CG2R61      CG321
   35    38    39    42	 9 ;      CG324     CG2R61     CG2R61     CG2R61
   35    38    39    41	 9 ;      CG324     CG2R61     CG2R61      CG321
   38    39    42    43	 9 ;     CG2R61     CG2R61     CG2R61     CG2R61
   38    39    42    76	 9 ;     CG2R61     CG2R61     CG2R61      HGR61
   41    39    42    43	 9 ;      CG321     CG2R61     CG2R61     CG2R61
   41    39    42    76	 9 ;      CG321     CG2R61     CG2R61      HGR61
   42    39    41    33	 9 ;     CG2R61     CG2R61      CG321      CG314
   42    39    41    74	 9 ;     CG2R61     CG2R61      CG321       HGA2
   42    39    41    75	 9 ;     CG2R61     CG2R61      CG321       HGA2
   38    39    41    33	 9 ;     CG2R61     CG2R61      CG321      CG314
   38    39    41    74	 9 ;     CG2R61     CG2R61      CG321       HGA2
   38    39    41    75	 9 ;     CG2R61     CG2R61      CG321       HGA2
   38    40    44    43	 9 ;     CG2R61     CG2R61     CG2R61     CG2R61
   38    40    44    78	 9 ;     CG2R61     CG2R61     CG2R61      HGR61
   73    40    44    43	 9 ;      HGR61     CG2R61     CG2R61     CG2R61
   73    40    44    78	 9 ;      HGR61     CG2R61     CG2R61      HGR61
   39    42    43    44	 9 ;     CG2R61     CG2R61     CG2R61     CG2R61
   39    42    43    77	 9 ;     CG2R61     CG2R61     CG2R61      HGR61
   76    42    43    44	 9 ;      HGR61     CG2R61     CG2R61     CG2R61
   76    42    43    77	 9 ;      HGR61     CG2R61     CG2R61      HGR61
   42    43    44    40	 9 ;     CG2R61     CG2R61     CG2R61     CG2R61
   42    43    44    78	 9 ;     CG2R61     CG2R61     CG2R61      HGR61
   77    43    44    40	 9 ;      HGR61     CG2R61     CG2R61     CG2R61
   77    43    44    78	 9 ;      HGR61     CG2R61     CG2R61      HGR61

[ dihedrals ]
;	ai	  aj	ak	  al funct			  c0			c1			  c2			c3
   12    15    11    13	 2
   21    17    23    22	 2

