Grunge ROck MAChoS
   78
    1LIG     C1    1  -1.406   0.384  -1.518
    1LIG     C2    2  -1.284   0.378  -1.423
    1LIG     C3    3  -1.194   0.260  -1.449
    1LIG     C4    4  -1.242   0.147  -1.517
    1LIG     C5    5  -1.157   0.039  -1.543
    1LIG     F1    6  -1.204  -0.067  -1.609
    1LIG     C6    7  -1.024   0.041  -1.501
    1LIG     C7    8  -0.978   0.152  -1.433
    1LIG     C8    9  -1.060   0.261  -1.406
    1LIG     F2   10  -0.850   0.155  -1.391
    1LIG     N1   11  -1.532   0.388  -1.442
    1LIG     C9   12  -1.637   0.304  -1.476
    1LIG     O1   13  -1.634   0.234  -1.577
    1LIG     H1   14  -1.528   0.419  -1.346
    1LIG    C10   15  -1.754   0.300  -1.384
    1LIG    C11   16  -1.858   0.211  -1.413
    1LIG    C12   17  -1.971   0.206  -1.331
    1LIG    C13   18  -1.982   0.292  -1.221
    1LIG    C14   19  -1.878   0.381  -1.192
    1LIG    C15   20  -1.764   0.385  -1.273
    1LIG    C16   21  -2.082   0.116  -1.369
    1LIG     O2   22  -2.148   0.151  -1.467
    1LIG     N2   23  -2.106  -0.001  -1.296
    1LIG    C17   24  -2.001  -0.068  -1.217
    1LIG    C18   25  -2.017  -0.057  -1.065
    1LIG    C19   26  -1.949  -0.170  -0.990
    1LIG    C20   27  -2.221  -0.081  -1.337
    1LIG    C21   28  -2.195  -0.232  -1.333
    1LIG    C22   29  -2.260  -0.303  -1.215
    1LIG    C23   30  -1.399   0.505  -1.618
    1LIG     O3   31  -1.512   0.591  -1.606
    1LIG     H2   32  -1.513   0.628  -1.515
    1LIG    C24   33  -1.269   0.590  -1.609
    1LIG     N3   34  -1.293   0.721  -1.538
    1LIG    C25   35  -1.167   0.788  -1.500
    1LIG     H3   36  -1.357   0.709  -1.457
    1LIG     H4   37  -1.347   0.785  -1.597
    1LIG    C26   38  -1.073   0.800  -1.617
    1LIG    C27   39  -1.088   0.718  -1.731
    1LIG    C28   40  -0.966   0.890  -1.611
    1LIG    C29   41  -1.203   0.620  -1.744
    1LIG    C30   42  -0.998   0.731  -1.838
    1LIG    C31   43  -0.892   0.822  -1.830
    1LIG    C32   44  -0.876   0.901  -1.717
    1LIG     HC   45  -1.405   0.293  -1.577
    1LIG    HC2   46  -1.321   0.372  -1.320
    1LIG    HC3   47  -1.226   0.470  -1.434
    1LIG    HC1   48  -1.344   0.144  -1.550
    1LIG    HC4   49  -0.959  -0.043  -1.521
    1LIG    HC5   50  -1.021   0.346  -1.352
    1LIG    HC6   51  -1.851   0.147  -1.500
    1LIG    HC7   52  -2.071   0.290  -1.160
    1LIG    HC8   53  -1.886   0.446  -1.106
    1LIG    HC9   54  -1.684   0.453  -1.249
    1LIG   HC10   55  -1.905  -0.025  -1.244
    1LIG   HC11   56  -2.001  -0.174  -1.244
    1LIG   HC12   57  -1.973   0.037  -1.033
    1LIG   HC13   58  -2.123  -0.057  -1.040
    1LIG   HC14   59  -1.963  -0.156  -0.882
    1LIG   HC15   60  -1.992  -0.265  -1.020
    1LIG   HC16   61  -1.842  -0.170  -1.012
    1LIG   HC17   62  -2.249  -0.053  -1.438
    1LIG   HC18   63  -2.305  -0.059  -1.270
    1LIG   HC19   64  -2.234  -0.276  -1.425
    1LIG   HC20   65  -2.088  -0.249  -1.329
    1LIG   HC21   66  -2.237  -0.410  -1.220
    1LIG   HC22   67  -2.222  -0.262  -1.122
    1LIG   HC23   68  -2.368  -0.289  -1.220
    1LIG   HC24   69  -1.402   0.463  -1.719
    1LIG   HC25   70  -1.198   0.534  -1.549
    1LIG   HC26   71  -1.190   0.888  -1.464
    1LIG   HC27   72  -1.118   0.731  -1.421
    1LIG   HC28   73  -0.952   0.951  -1.523
    1LIG   HC29   74  -1.165   0.527  -1.785
    1LIG   HC30   75  -1.277   0.661  -1.812
    1LIG   HC31   76  -1.010   0.670  -1.926
    1LIG   HC32   77  -0.823   0.831  -1.913
    1LIG   HC33   78  -0.794   0.971  -1.711
   0.00000   0.00000   0.00000
