Gromacs Runs One Microsecond At Cannonball Speeds
   26
    1LIG     O2    1  -1.501   0.545  -1.724
    1LIG     C1    2  -1.264   0.515  -1.722
    1LIG     C2    3  -1.389   0.593  -1.719
    1LIG     O3    4  -1.016   0.395  -1.707
    1LIG     C3    5  -1.110   0.182  -1.662
    1LIG     C4    6  -1.227   0.105  -1.644
    1LIG     C5    7  -0.984   0.120  -1.667
    1LIG     C6    8  -1.213  -0.034  -1.635
    1LIG     C7    9  -0.973  -0.018  -1.654
    1LIG     C8   10  -1.088  -0.095  -1.638
    1LIG     C9   11  -1.250   0.394  -1.665
    1LIG    C10   12  -1.350   0.316  -1.585
    1LIG    C11   13  -1.116   0.329  -1.680
    1LIG    C12   14  -1.361   0.173  -1.638
    1LIG     O1   15  -1.320  -0.119  -1.623
    1LIG     H1   16  -1.325  -0.152  -1.532
    1LIG     O4   17  -1.364   0.725  -1.712
    1LIG    H10   18  -1.343   0.768  -1.797
    1LIG     H2   19  -1.182   0.556  -1.770
    1LIG     H3   20  -0.899   0.178  -1.680
    1LIG     H4   21  -0.880  -0.063  -1.656
    1LIG     H5   22  -1.080  -0.197  -1.629
    1LIG     H6   23  -1.446   0.363  -1.592
    1LIG     H7   24  -1.318   0.312  -1.483
    1LIG     H8   25  -1.426   0.117  -1.574
    1LIG     H9   26  -1.401   0.177  -1.738
   0.00000   0.00000   0.00000
