GROup of MAchos and Cynical Suckers
   64
    1LIG     C1    1  -1.654   0.654  -1.575
    1LIG     C2    2  -1.599   0.775  -1.651
    1LIG     O1    3  -1.564   0.876  -1.555
    1LIG     H1    4  -1.629   0.879  -1.482
    1LIG     C3    5  -1.485   0.738  -1.751
    1LIG     N1    6  -1.525   0.785  -1.885
    1LIG     C4    7  -1.589   0.706  -1.977
    1LIG     O2    8  -1.623   0.591  -1.954
    1LIG     C5    9  -1.625   0.780  -2.104
    1LIG     H2   10  -1.502   0.880  -1.912
    1LIG     C6   11  -1.346   0.795  -1.714
    1LIG     C7   12  -1.251   0.691  -1.658
    1LIG     C8   13  -1.265   0.647  -1.526
    1LIG     C9   14  -1.168   0.564  -1.470
    1LIG     F1   15  -1.179   0.527  -1.342
    1LIG    C10   16  -1.058   0.522  -1.543
    1LIG    C11   17  -1.047   0.562  -1.675
    1LIG    C12   18  -1.143   0.644  -1.734
    1LIG     F2   19  -0.941   0.524  -1.748
    1LIG     N2   20  -1.613   0.530  -1.652
    1LIG     H3   21  -1.684   0.515  -1.727
    1LIG     H4   22  -1.525   0.548  -1.702
    1LIG    C13   23  -1.602   0.406  -1.573
    1LIG    C14   24  -1.725   0.318  -1.571
    1LIG    C15   25  -1.688   0.399  -1.450
    1LIG    C16   26  -1.463   0.347  -1.571
    1LIG    C17   27  -1.413   0.288  -1.454
    1LIG    C18   28  -1.295   0.210  -1.452
    1LIG    C19   29  -1.224   0.198  -1.572
    1LIG    C20   30  -1.269   0.261  -1.689
    1LIG    C21   31  -1.387   0.335  -1.688
    1LIG    C22   32  -1.254   0.139  -1.321
    1LIG    C23   33  -1.103   0.162  -1.299
    1LIG    C24   34  -1.328   0.193  -1.197
    1LIG    C25   35  -1.281  -0.013  -1.328
    1LIG     F3   36  -1.299  -0.064  -1.204
    1LIG     F4   37  -1.395  -0.039  -1.398
    1LIG    HC2   38  -1.763   0.660  -1.570
    1LIG    HC3   39  -1.612   0.650  -1.475
    1LIG     HC   40  -1.681   0.815  -1.711
    1LIG    HC1   41  -1.477   0.629  -1.754
    1LIG    HC4   42  -1.301   0.838  -1.804
    1LIG    HC5   43  -1.359   0.874  -1.640
    1LIG    HC6   44  -1.350   0.677  -1.467
    1LIG    HC7   45  -0.982   0.459  -1.498
    1LIG    HC8   46  -1.135   0.671  -1.838
    1LIG    HC9   47  -1.715   0.210  -1.569
    1LIG   HC10   48  -1.810   0.356  -1.628
    1LIG   HC11   49  -1.749   0.485  -1.421
    1LIG   HC12   50  -1.646   0.342  -1.367
    1LIG   HC13   51  -1.466   0.302  -1.361
    1LIG   HC14   52  -1.134   0.139  -1.575
    1LIG   HC15   53  -1.211   0.253  -1.779
    1LIG   HC16   54  -1.421   0.383  -1.778
    1LIG   HC17   55  -1.197  -0.063  -1.377
    1LIG   HC18   56  -1.047   0.125  -1.385
    1LIG   HC19   57  -1.084   0.269  -1.286
    1LIG   HC20   58  -1.071   0.109  -1.209
    1LIG   HC21   59  -1.676   0.713  -2.172
    1LIG   HC22   60  -1.691   0.864  -2.079
    1LIG   HC23   61  -1.534   0.818  -2.150
    1LIG   HC24   62  -1.280   0.155  -1.107
    1LIG   HC25   63  -1.324   0.302  -1.197
    1LIG   HC26   64  -1.432   0.161  -1.199
   0.00000   0.00000   0.00000
