Getting the Right Output Means no Artefacts in Calculating Stuff
   75
    1LIG      S    1  -1.173   0.349  -2.348
    1LIG     O1    2  -1.253   0.453  -2.272
    1LIG     C1    3  -1.175   0.198  -2.245
    1LIG     C2    4  -1.141   0.230  -2.098
    1LIG     C3    5  -0.995   0.281  -2.088
    1LIG     C4    6  -0.973   0.414  -2.166
    1LIG     C5    7  -0.998   0.392  -2.316
    1LIG     C6    8  -1.169   0.106  -2.011
    1LIG     C7    9  -1.257   0.135  -1.890
    1LIG     C8   10  -1.262   0.048  -1.781
    1LIG     C9   11  -1.340   0.075  -1.666
    1LIG    C10   12  -1.408   0.198  -1.658
    1LIG    C11   13  -1.408   0.280  -1.773
    1LIG     F1   14  -1.482   0.392  -1.774
    1LIG    C12   15  -1.333   0.251  -1.887
    1LIG     O2   16  -1.328  -0.022  -1.571
    1LIG    C13   17  -1.210  -0.032  -1.489
    1LIG    C14   18  -1.250   0.017  -1.349
    1LIG     O3   19  -1.264   0.159  -1.345
    1LIG    C15   20  -1.145   0.226  -1.388
    1LIG    C16   21  -1.155  -0.175  -1.482
    1LIG     F2   22  -1.199  -0.238  -1.370
    1LIG     F3   23  -1.203  -0.249  -1.586
    1LIG     F4   24  -1.021  -0.184  -1.482
    1LIG     N1   25  -1.491   0.238  -1.551
    1LIG     H1   26  -1.581   0.270  -1.587
    1LIG     H2   27  -1.455   0.310  -1.490
    1LIG     O4   28  -0.907   0.181  -2.139
    1LIG     H3   29  -0.959   0.106  -2.174
    1LIG     N2   30  -1.059   0.527  -2.113
    1LIG     H4   31  -1.086   0.589  -2.191
    1LIG     H5   32  -1.152   0.488  -2.084
    1LIG    C17   33  -1.003   0.612  -2.004
    1LIG    C18   34  -1.069   0.589  -1.872
    1LIG    C19   35  -1.190   0.654  -1.837
    1LIG    C20   36  -1.255   0.627  -1.715
    1LIG    C21   37  -1.196   0.534  -1.628
    1LIG    C22   38  -1.076   0.469  -1.662
    1LIG    C23   39  -1.014   0.498  -1.782
    1LIG     F5   40  -0.900   0.435  -1.814
    1LIG    C24   41  -1.387   0.700  -1.680
    1LIG    C25   42  -1.356   0.840  -1.622
    1LIG    C26   43  -1.481   0.720  -1.801
    1LIG    C27   44  -1.464   0.618  -1.575
    1LIG    HC2   45  -1.102   0.127  -2.284
    1LIG    HC3   46  -1.275   0.153  -2.249
    1LIG     HC   47  -1.207   0.310  -2.065
    1LIG    HC1   48  -0.971   0.298  -1.982
    1LIG    HC4   49  -0.869   0.443  -2.153
    1LIG    HC5   50  -0.974   0.484  -2.369
    1LIG    HC6   51  -0.934   0.312  -2.352
    1LIG    HC7   52  -1.219   0.032  -2.073
    1LIG    HC8   53  -1.074   0.065  -1.977
    1LIG    HC9   54  -1.204  -0.044  -1.784
    1LIG   HC10   55  -1.334   0.318  -1.971
    1LIG   HC11   56  -1.133   0.034  -1.529
    1LIG   HC12   57  -1.173  -0.013  -1.278
    1LIG   HC13   58  -1.344  -0.029  -1.321
    1LIG   HC14   59  -1.015   0.716  -2.032
    1LIG   HC15   60  -0.896   0.590  -1.994
    1LIG   HC16   61  -1.233   0.725  -1.906
    1LIG   HC17   62  -1.243   0.511  -1.534
    1LIG   HC18   63  -1.032   0.398  -1.594
    1LIG   HC19   64  -1.565   0.659  -1.563
    1LIG   HC20   65  -1.412   0.622  -1.479
    1LIG   HC21   66  -1.472   0.514  -1.608
    1LIG   HC22   67  -1.429   0.778  -1.877
    1LIG   HC23   68  -1.570   0.774  -1.768
    1LIG   HC24   69  -1.509   0.623  -1.841
    1LIG   HC25   70  -1.290   0.831  -1.536
    1LIG   HC26   71  -1.449   0.888  -1.591
    1LIG   HC27   72  -1.308   0.901  -1.699
    1LIG   HC28   73  -1.138   0.322  -1.338
    1LIG   HC29   74  -1.058   0.165  -1.362
    1LIG   HC30   75  -1.149   0.241  -1.495
   0.00000   0.00000   0.00000
