; Created by cgenff_charmm2gmx.py

[ moleculetype ]
; Name			   nrexcl
LIG				 3

[ atoms ]
;	 nr		  type	resnr residue  atom   cgnr	   charge		mass  typeB    chargeB		massB
; residue	 1 LIG rtp LIG q	qsum
     1      SG311      1    LIG     S1      1     -0.246     32.060   ;
     2      CG321      1    LIG     C1      2      0.035     12.011   ;
     3      CG311      1    LIG     C2      3     -0.058     12.011   ;
     4      NG2S1      1    LIG     N1      4     -0.387     14.007   ;
     5      CG2O1      1    LIG     C3      5      0.507     12.011   ;
     6      OG2D1      1    LIG     O1      6     -0.511     15.999   ;
     7      CG311      1    LIG     C4      7      0.078     12.011   ;
     8      NG2S1      1    LIG     N2      8     -0.389     14.007   ;
     9      CG2O1      1    LIG     C5      9      0.392     12.011   ;
    10      OG2D1      1    LIG     O2     10     -0.463     15.999   ;
    11      CG314      1    LIG     C6     11      0.141     12.011   ;
    12      NG3P2      1    LIG     N3     12     -0.423     14.007   ;
    13      CG324      1    LIG     C7     13      0.161     12.011   ;
    14      CG321      1    LIG     C8     14     -0.219     12.011   ;
    15      CG321      1    LIG     C9     15     -0.010     12.011   ;
    16      CG311      1    LIG    C10     16      0.031     12.011   ;
    17      SG311      1    LIG     S2     17     -0.133     32.060   ;
    18      CG321      1    LIG    C11     18     -0.136     12.011   ;
    19      CG2D1      1    LIG    C12     19     -0.157     12.011   ;
    20      CG2D1      1    LIG    C13     20     -0.157     12.011   ;
    21      CG321      1    LIG    C14     21     -0.071     12.011   ;
    22      CG331      1    LIG    C15     22     -0.270     12.011   ;
    23       HGP1      1    LIG     H1     23      0.269      1.008   ;
    24       HGP1      1    LIG     H2     24      0.319      1.008   ;
    25       HGP2      1    LIG     H3     25      0.329      1.008   ;
    26       HGP2      1    LIG     H4     26      0.329      1.008   ;
    27      CG311      1    LIG    C16     27      0.128     12.011   ;
    28      OG311      1    LIG     O3     28     -0.648     15.999   ;
    29       HGP1      1    LIG     H5     29      0.421      1.008   ;
    30      CG321      1    LIG    C17     30     -0.187     12.011   ;
    31      CG311      1    LIG    C18     31     -0.033     12.011   ;
    32      CG331      1    LIG    C19     32     -0.266     12.011   ;
    33      CG2O1      1    LIG    C20     33      0.492     12.011   ;
    34      OG2D1      1    LIG     O4     34     -0.514     15.999   ;
    35      NG2S1      1    LIG     N4     35     -0.457     14.007   ;
    36       HGP1      1    LIG     H6     36      0.305      1.008   ;
    37      CG321      1    LIG    C21     37     -0.033     12.011   ;
    38      CG321      1    LIG    C22     38     -0.184     12.011   ;
    39      CG321      1    LIG    C23     39     -0.178     12.011   ;
    40      CG331      1    LIG    C24     40     -0.270     12.011   ;
    41       HGA2      1    LIG    HC2     41      0.090      1.008   ;
    42       HGA2      1    LIG    HC3     42      0.090      1.008   ;
    43       HGA1      1    LIG     HC     43      0.090      1.008   ;
    44       HGA1      1    LIG    HC1     44      0.090      1.008   ;
    45       HGA1      1    LIG    HC4     45      0.103      1.008   ;
    46       HGA2      1    LIG    HC5     46      0.090      1.008   ;
    47       HGA2      1    LIG    HC6     47      0.090      1.008   ;
    48       HGA2      1    LIG    HC7     48      0.090      1.008   ;
    49       HGA2      1    LIG    HC8     49      0.090      1.008   ;
    50       HGA2      1    LIG    HC9     50      0.090      1.008   ;
    51       HGA2      1    LIG   HC10     51      0.090      1.008   ;
    52       HGA1      1    LIG   HC11     52      0.090      1.008   ;
    53       HGA2      1    LIG   HC12     53      0.090      1.008   ;
    54       HGA2      1    LIG   HC13     54      0.090      1.008   ;
    55       HGA4      1    LIG   HC14     55      0.150      1.008   ;
    56       HGA4      1    LIG   HC15     56      0.150      1.008   ;
    57       HGA2      1    LIG   HC16     57      0.090      1.008   ;
    58       HGA2      1    LIG   HC17     58      0.090      1.008   ;
    59       HGA3      1    LIG   HC18     59      0.090      1.008   ;
    60       HGA3      1    LIG   HC19     60      0.090      1.008   ;
    61       HGA3      1    LIG   HC20     61      0.090      1.008   ;
    62       HGA1      1    LIG   HC21     62      0.090      1.008   ;
    63       HGA2      1    LIG   HC22     63      0.090      1.008   ;
    64       HGA2      1    LIG   HC23     64      0.090      1.008   ;
    65       HGA1      1    LIG   HC24     65      0.090      1.008   ;
    66       HGA3      1    LIG   HC25     66      0.090      1.008   ;
    67       HGA3      1    LIG   HC26     67      0.090      1.008   ;
    68       HGA3      1    LIG   HC27     68      0.090      1.008   ;
    69       HGA2      1    LIG   HC28     69      0.090      1.008   ;
    70       HGA2      1    LIG   HC29     70      0.090      1.008   ;
    71       HGA2      1    LIG   HC30     71      0.090      1.008   ;
    72       HGA2      1    LIG   HC31     72      0.090      1.008   ;
    73       HGA2      1    LIG   HC32     73      0.090      1.008   ;
    74       HGA2      1    LIG   HC33     74      0.090      1.008   ;
    75       HGA3      1    LIG   HC34     75      0.090      1.008   ;
    76       HGA3      1    LIG   HC35     76      0.090      1.008   ;
    77       HGA3      1    LIG   HC36     77      0.090      1.008   ;

[ bonds ]
;	ai	  aj funct			  c0			c1			  c2			c3
    1     2	 1 ;       SG311      CG321
    1    21	 1 ;       SG311      CG321
    2     3	 1 ;       CG321      CG311
    2    41	 1 ;       CG321       HGA2
    2    42	 1 ;       CG321       HGA2
    3     4	 1 ;       CG311      NG2S1
    3    27	 1 ;       CG311      CG311
    3    43	 1 ;       CG311       HGA1
    4    23	 1 ;       NG2S1       HGP1
    4     5	 1 ;       NG2S1      CG2O1
    5     7	 1 ;       CG2O1      CG311
    5     6	 1 ;       CG2O1      OG2D1
    7    22	 1 ;       CG311      CG331
    7     8	 1 ;       CG311      NG2S1
    7    44	 1 ;       CG311       HGA1
    8     9	 1 ;       NG2S1      CG2O1
    8    24	 1 ;       NG2S1       HGP1
    9    10	 1 ;       CG2O1      OG2D1
    9    11	 1 ;       CG2O1      CG314
   11    12	 1 ;       CG314      NG3P2
   11    16	 1 ;       CG314      CG311
   11    45	 1 ;       CG314       HGA1
   12    25	 1 ;       NG3P2       HGP2
   12    26	 1 ;       NG3P2       HGP2
   12    13	 1 ;       NG3P2      CG324
   13    14	 1 ;       CG324      CG321
   13    46	 1 ;       CG324       HGA2
   13    47	 1 ;       CG324       HGA2
   14    15	 1 ;       CG321      CG321
   14    48	 1 ;       CG321       HGA2
   14    49	 1 ;       CG321       HGA2
   15    16	 1 ;       CG321      CG311
   15    50	 1 ;       CG321       HGA2
   15    51	 1 ;       CG321       HGA2
   16    17	 1 ;       CG311      SG311
   16    52	 1 ;       CG311       HGA1
   17    18	 1 ;       SG311      CG321
   18    19	 1 ;       CG321      CG2D1
   18    53	 1 ;       CG321       HGA2
   18    54	 1 ;       CG321       HGA2
   19    20	 1 ;       CG2D1      CG2D1
   19    55	 1 ;       CG2D1       HGA4
   20    21	 1 ;       CG2D1      CG321
   20    56	 1 ;       CG2D1       HGA4
   21    57	 1 ;       CG321       HGA2
   21    58	 1 ;       CG321       HGA2
   22    59	 1 ;       CG331       HGA3
   22    60	 1 ;       CG331       HGA3
   22    61	 1 ;       CG331       HGA3
   27    28	 1 ;       CG311      OG311
   27    30	 1 ;       CG311      CG321
   27    62	 1 ;       CG311       HGA1
   28    29	 1 ;       OG311       HGP1
   30    31	 1 ;       CG321      CG311
   30    63	 1 ;       CG321       HGA2
   30    64	 1 ;       CG321       HGA2
   31    33	 1 ;       CG311      CG2O1
   31    32	 1 ;       CG311      CG331
   31    65	 1 ;       CG311       HGA1
   32    66	 1 ;       CG331       HGA3
   32    67	 1 ;       CG331       HGA3
   32    68	 1 ;       CG331       HGA3
   33    34	 1 ;       CG2O1      OG2D1
   33    35	 1 ;       CG2O1      NG2S1
   35    37	 1 ;       NG2S1      CG321
   35    36	 1 ;       NG2S1       HGP1
   37    38	 1 ;       CG321      CG321
   37    69	 1 ;       CG321       HGA2
   37    70	 1 ;       CG321       HGA2
   38    39	 1 ;       CG321      CG321
   38    71	 1 ;       CG321       HGA2
   38    72	 1 ;       CG321       HGA2
   39    40	 1 ;       CG321      CG331
   39    73	 1 ;       CG321       HGA2
   39    74	 1 ;       CG321       HGA2
   40    75	 1 ;       CG331       HGA3
   40    76	 1 ;       CG331       HGA3
   40    77	 1 ;       CG331       HGA3

[ pairs ]
;	ai	  aj funct			  c0			c1			  c2			c3
    1     4	 1
    1    27	 1
    1    43	 1
    1    19	 1
    1    56	 1
    2    20	 1
    2    57	 1
    2    58	 1
    2    23	 1
    2     5	 1
    2    28	 1
    2    30	 1
    2    62	 1
    3    21	 1
    3     7	 1
    3     6	 1
    3    29	 1
    3    31	 1
    3    63	 1
    3    64	 1
    4    41	 1
    4    42	 1
    4    28	 1
    4    30	 1
    4    62	 1
    4    22	 1
    4     8	 1
    4    44	 1
    5    27	 1
    5    43	 1
    5    59	 1
    5    60	 1
    5    61	 1
    5     9	 1
    5    24	 1
    6    23	 1
    6    22	 1
    6     8	 1
    6    44	 1
    7    23	 1
    7    10	 1
    7    11	 1
    8    59	 1
    8    60	 1
    8    61	 1
    8    12	 1
    8    16	 1
    8    45	 1
    9    22	 1
    9    44	 1
    9    25	 1
    9    26	 1
    9    13	 1
    9    17	 1
    9    15	 1
    9    52	 1
   10    24	 1
   10    12	 1
   10    16	 1
   10    45	 1
   11    24	 1
   11    14	 1
   11    46	 1
   11    47	 1
   11    50	 1
   11    51	 1
   11    18	 1
   12    17	 1
   12    15	 1
   12    52	 1
   12    48	 1
   12    49	 1
   13    16	 1
   13    45	 1
   13    50	 1
   13    51	 1
   14    25	 1
   14    26	 1
   14    17	 1
   14    52	 1
   15    45	 1
   15    46	 1
   15    47	 1
   15    18	 1
   16    25	 1
   16    26	 1
   16    48	 1
   16    49	 1
   16    19	 1
   16    53	 1
   16    54	 1
   17    45	 1
   17    50	 1
   17    51	 1
   17    20	 1
   17    55	 1
   18    52	 1
   18    21	 1
   18    56	 1
   19    57	 1
   19    58	 1
   20    53	 1
   20    54	 1
   21    41	 1
   21    42	 1
   21    55	 1
   22    24	 1
   23    27	 1
   23    43	 1
   24    44	 1
   25    45	 1
   25    46	 1
   25    47	 1
   26    45	 1
   26    46	 1
   26    47	 1
   27    41	 1
   27    42	 1
   27    33	 1
   27    32	 1
   27    65	 1
   28    43	 1
   28    31	 1
   28    63	 1
   28    64	 1
   29    30	 1
   29    62	 1
   30    43	 1
   30    34	 1
   30    35	 1
   30    66	 1
   30    67	 1
   30    68	 1
   31    62	 1
   31    37	 1
   31    36	 1
   32    63	 1
   32    64	 1
   32    34	 1
   32    35	 1
   33    63	 1
   33    64	 1
   33    66	 1
   33    67	 1
   33    68	 1
   33    38	 1
   33    69	 1
   33    70	 1
   34    65	 1
   34    37	 1
   34    36	 1
   35    65	 1
   35    39	 1
   35    71	 1
   35    72	 1
   36    38	 1
   36    69	 1
   36    70	 1
   37    40	 1
   37    73	 1
   37    74	 1
   38    75	 1
   38    76	 1
   38    77	 1
   39    69	 1
   39    70	 1
   40    71	 1
   40    72	 1
   41    43	 1
   42    43	 1
   43    62	 1
   44    59	 1
   44    60	 1
   44    61	 1
   45    52	 1
   46    48	 1
   46    49	 1
   47    48	 1
   47    49	 1
   48    50	 1
   48    51	 1
   49    50	 1
   49    51	 1
   50    52	 1
   51    52	 1
   53    55	 1
   54    55	 1
   55    56	 1
   56    57	 1
   56    58	 1
   62    63	 1
   62    64	 1
   63    65	 1
   64    65	 1
   65    66	 1
   65    67	 1
   65    68	 1
   69    71	 1
   69    72	 1
   70    71	 1
   70    72	 1
   71    73	 1
   71    74	 1
   72    73	 1
   72    74	 1
   73    75	 1
   73    76	 1
   73    77	 1
   74    75	 1
   74    76	 1
   74    77	 1

[ angles ]
;	ai	  aj	ak funct			c0			  c1			c2			  c3
    2     1    21	5 ;      CG321      SG311      CG321
    3     2     1	5 ;      CG311      CG321      SG311
    3     2    41	5 ;      CG311      CG321       HGA2
    3     2    42	5 ;      CG311      CG321       HGA2
    1     2    41	5 ;      SG311      CG321       HGA2
    1     2    42	5 ;      SG311      CG321       HGA2
   41     2    42	5 ;       HGA2      CG321       HGA2
    4     3    27	5 ;      NG2S1      CG311      CG311
    4     3     2	5 ;      NG2S1      CG311      CG321
    4     3    43	5 ;      NG2S1      CG311       HGA1
   27     3     2	5 ;      CG311      CG311      CG321
   27     3    43	5 ;      CG311      CG311       HGA1
    2     3    43	5 ;      CG321      CG311       HGA1
   23     4     5	5 ;       HGP1      NG2S1      CG2O1
   23     4     3	5 ;       HGP1      NG2S1      CG311
    5     4     3	5 ;      CG2O1      NG2S1      CG311
    7     5     4	5 ;      CG311      CG2O1      NG2S1
    7     5     6	5 ;      CG311      CG2O1      OG2D1
    4     5     6	5 ;      NG2S1      CG2O1      OG2D1
   22     7     5	5 ;      CG331      CG311      CG2O1
   22     7     8	5 ;      CG331      CG311      NG2S1
   22     7    44	5 ;      CG331      CG311       HGA1
    5     7     8	5 ;      CG2O1      CG311      NG2S1
    5     7    44	5 ;      CG2O1      CG311       HGA1
    8     7    44	5 ;      NG2S1      CG311       HGA1
    7     8     9	5 ;      CG311      NG2S1      CG2O1
    7     8    24	5 ;      CG311      NG2S1       HGP1
    9     8    24	5 ;      CG2O1      NG2S1       HGP1
   10     9     8	5 ;      OG2D1      CG2O1      NG2S1
   10     9    11	5 ;      OG2D1      CG2O1      CG314
    8     9    11	5 ;      NG2S1      CG2O1      CG314
    9    11    12	5 ;      CG2O1      CG314      NG3P2
    9    11    16	5 ;      CG2O1      CG314      CG311
    9    11    45	5 ;      CG2O1      CG314       HGA1
   12    11    16	5 ;      NG3P2      CG314      CG311
   12    11    45	5 ;      NG3P2      CG314       HGA1
   16    11    45	5 ;      CG311      CG314       HGA1
   25    12    11	5 ;       HGP2      NG3P2      CG314
   25    12    26	5 ;       HGP2      NG3P2       HGP2
   25    12    13	5 ;       HGP2      NG3P2      CG324
   11    12    26	5 ;      CG314      NG3P2       HGP2
   11    12    13	5 ;      CG314      NG3P2      CG324
   26    12    13	5 ;       HGP2      NG3P2      CG324
   12    13    14	5 ;      NG3P2      CG324      CG321
   12    13    46	5 ;      NG3P2      CG324       HGA2
   12    13    47	5 ;      NG3P2      CG324       HGA2
   14    13    46	5 ;      CG321      CG324       HGA2
   14    13    47	5 ;      CG321      CG324       HGA2
   46    13    47	5 ;       HGA2      CG324       HGA2
   13    14    15	5 ;      CG324      CG321      CG321
   13    14    48	5 ;      CG324      CG321       HGA2
   13    14    49	5 ;      CG324      CG321       HGA2
   15    14    48	5 ;      CG321      CG321       HGA2
   15    14    49	5 ;      CG321      CG321       HGA2
   48    14    49	5 ;       HGA2      CG321       HGA2
   16    15    14	5 ;      CG311      CG321      CG321
   16    15    50	5 ;      CG311      CG321       HGA2
   16    15    51	5 ;      CG311      CG321       HGA2
   14    15    50	5 ;      CG321      CG321       HGA2
   14    15    51	5 ;      CG321      CG321       HGA2
   50    15    51	5 ;       HGA2      CG321       HGA2
   11    16    17	5 ;      CG314      CG311      SG311
   11    16    15	5 ;      CG314      CG311      CG321
   11    16    52	5 ;      CG314      CG311       HGA1
   17    16    15	5 ;      SG311      CG311      CG321
   17    16    52	5 ;      SG311      CG311       HGA1
   15    16    52	5 ;      CG321      CG311       HGA1
   16    17    18	5 ;      CG311      SG311      CG321
   17    18    19	5 ;      SG311      CG321      CG2D1
   17    18    53	5 ;      SG311      CG321       HGA2
   17    18    54	5 ;      SG311      CG321       HGA2
   19    18    53	5 ;      CG2D1      CG321       HGA2
   19    18    54	5 ;      CG2D1      CG321       HGA2
   53    18    54	5 ;       HGA2      CG321       HGA2
   18    19    20	5 ;      CG321      CG2D1      CG2D1
   18    19    55	5 ;      CG321      CG2D1       HGA4
   20    19    55	5 ;      CG2D1      CG2D1       HGA4
   19    20    21	5 ;      CG2D1      CG2D1      CG321
   19    20    56	5 ;      CG2D1      CG2D1       HGA4
   21    20    56	5 ;      CG321      CG2D1       HGA4
    1    21    20	5 ;      SG311      CG321      CG2D1
    1    21    57	5 ;      SG311      CG321       HGA2
    1    21    58	5 ;      SG311      CG321       HGA2
   20    21    57	5 ;      CG2D1      CG321       HGA2
   20    21    58	5 ;      CG2D1      CG321       HGA2
   57    21    58	5 ;       HGA2      CG321       HGA2
    7    22    59	5 ;      CG311      CG331       HGA3
    7    22    60	5 ;      CG311      CG331       HGA3
    7    22    61	5 ;      CG311      CG331       HGA3
   59    22    60	5 ;       HGA3      CG331       HGA3
   59    22    61	5 ;       HGA3      CG331       HGA3
   60    22    61	5 ;       HGA3      CG331       HGA3
   28    27     3	5 ;      OG311      CG311      CG311
   28    27    30	5 ;      OG311      CG311      CG321
   28    27    62	5 ;      OG311      CG311       HGA1
    3    27    30	5 ;      CG311      CG311      CG321
    3    27    62	5 ;      CG311      CG311       HGA1
   30    27    62	5 ;      CG321      CG311       HGA1
   29    28    27	5 ;       HGP1      OG311      CG311
   27    30    31	5 ;      CG311      CG321      CG311
   27    30    63	5 ;      CG311      CG321       HGA2
   27    30    64	5 ;      CG311      CG321       HGA2
   31    30    63	5 ;      CG311      CG321       HGA2
   31    30    64	5 ;      CG311      CG321       HGA2
   63    30    64	5 ;       HGA2      CG321       HGA2
   33    31    30	5 ;      CG2O1      CG311      CG321
   33    31    32	5 ;      CG2O1      CG311      CG331
   33    31    65	5 ;      CG2O1      CG311       HGA1
   30    31    32	5 ;      CG321      CG311      CG331
   30    31    65	5 ;      CG321      CG311       HGA1
   32    31    65	5 ;      CG331      CG311       HGA1
   31    32    66	5 ;      CG311      CG331       HGA3
   31    32    67	5 ;      CG311      CG331       HGA3
   31    32    68	5 ;      CG311      CG331       HGA3
   66    32    67	5 ;       HGA3      CG331       HGA3
   66    32    68	5 ;       HGA3      CG331       HGA3
   67    32    68	5 ;       HGA3      CG331       HGA3
   34    33    31	5 ;      OG2D1      CG2O1      CG311
   34    33    35	5 ;      OG2D1      CG2O1      NG2S1
   31    33    35	5 ;      CG311      CG2O1      NG2S1
   33    35    37	5 ;      CG2O1      NG2S1      CG321
   33    35    36	5 ;      CG2O1      NG2S1       HGP1
   37    35    36	5 ;      CG321      NG2S1       HGP1
   38    37    35	5 ;      CG321      CG321      NG2S1
   38    37    69	5 ;      CG321      CG321       HGA2
   38    37    70	5 ;      CG321      CG321       HGA2
   35    37    69	5 ;      NG2S1      CG321       HGA2
   35    37    70	5 ;      NG2S1      CG321       HGA2
   69    37    70	5 ;       HGA2      CG321       HGA2
   39    38    37	5 ;      CG321      CG321      CG321
   39    38    71	5 ;      CG321      CG321       HGA2
   39    38    72	5 ;      CG321      CG321       HGA2
   37    38    71	5 ;      CG321      CG321       HGA2
   37    38    72	5 ;      CG321      CG321       HGA2
   71    38    72	5 ;       HGA2      CG321       HGA2
   38    39    40	5 ;      CG321      CG321      CG331
   38    39    73	5 ;      CG321      CG321       HGA2
   38    39    74	5 ;      CG321      CG321       HGA2
   40    39    73	5 ;      CG331      CG321       HGA2
   40    39    74	5 ;      CG331      CG321       HGA2
   73    39    74	5 ;       HGA2      CG321       HGA2
   39    40    75	5 ;      CG321      CG331       HGA3
   39    40    76	5 ;      CG321      CG331       HGA3
   39    40    77	5 ;      CG321      CG331       HGA3
   75    40    76	5 ;       HGA3      CG331       HGA3
   75    40    77	5 ;       HGA3      CG331       HGA3
   76    40    77	5 ;       HGA3      CG331       HGA3

[ dihedrals ]
;	ai	  aj	ak	  al funct			  c0			c1			  c2			c3			  c4			c5
   21     1     2     3	 9 ;      CG321      SG311      CG321      CG311
   21     1     2    41	 9 ;      CG321      SG311      CG321       HGA2
   21     1     2    42	 9 ;      CG321      SG311      CG321       HGA2
    2     1    21    20	 9 ;      CG321      SG311      CG321      CG2D1
    2     1    21    57	 9 ;      CG321      SG311      CG321       HGA2
    2     1    21    58	 9 ;      CG321      SG311      CG321       HGA2
    1     2     3     4	 9 ;      SG311      CG321      CG311      NG2S1
    1     2     3    27	 9 ;      SG311      CG321      CG311      CG311
    1     2     3    43	 9 ;      SG311      CG321      CG311       HGA1
   41     2     3     4	 9 ;       HGA2      CG321      CG311      NG2S1
   41     2     3    27	 9 ;       HGA2      CG321      CG311      CG311
   41     2     3    43	 9 ;       HGA2      CG321      CG311       HGA1
   42     2     3     4	 9 ;       HGA2      CG321      CG311      NG2S1
   42     2     3    27	 9 ;       HGA2      CG321      CG311      CG311
   42     2     3    43	 9 ;       HGA2      CG321      CG311       HGA1
   27     3     4    23	 9 ;      CG311      CG311      NG2S1       HGP1
   27     3     4     5	 9 ;      CG311      CG311      NG2S1      CG2O1
    2     3     4    23	 9 ;      CG321      CG311      NG2S1       HGP1
    2     3     4     5	 9 ;      CG321      CG311      NG2S1      CG2O1
   43     3     4    23	 9 ;       HGA1      CG311      NG2S1       HGP1
   43     3     4     5	 9 ;       HGA1      CG311      NG2S1      CG2O1
    4     3    27    28	 9 ;      NG2S1      CG311      CG311      OG311
    4     3    27    30	 9 ;      NG2S1      CG311      CG311      CG321
    4     3    27    62	 9 ;      NG2S1      CG311      CG311       HGA1
    2     3    27    28	 9 ;      CG321      CG311      CG311      OG311
    2     3    27    30	 9 ;      CG321      CG311      CG311      CG321
    2     3    27    62	 9 ;      CG321      CG311      CG311       HGA1
   43     3    27    28	 9 ;       HGA1      CG311      CG311      OG311
   43     3    27    30	 9 ;       HGA1      CG311      CG311      CG321
   43     3    27    62	 9 ;       HGA1      CG311      CG311       HGA1
   23     4     5     7	 9 ;       HGP1      NG2S1      CG2O1      CG311
   23     4     5     6	 9 ;       HGP1      NG2S1      CG2O1      OG2D1
    3     4     5     7	 9 ;      CG311      NG2S1      CG2O1      CG311
    3     4     5     6	 9 ;      CG311      NG2S1      CG2O1      OG2D1
    4     5     7    22	 9 ;      NG2S1      CG2O1      CG311      CG331
    4     5     7     8	 9 ;      NG2S1      CG2O1      CG311      NG2S1
    4     5     7    44	 9 ;      NG2S1      CG2O1      CG311       HGA1
    6     5     7    22	 9 ;      OG2D1      CG2O1      CG311      CG331
    6     5     7     8	 9 ;      OG2D1      CG2O1      CG311      NG2S1
    6     5     7    44	 9 ;      OG2D1      CG2O1      CG311       HGA1
    5     7    22    59	 9 ;      CG2O1      CG311      CG331       HGA3
    5     7    22    60	 9 ;      CG2O1      CG311      CG331       HGA3
    5     7    22    61	 9 ;      CG2O1      CG311      CG331       HGA3
    8     7    22    59	 9 ;      NG2S1      CG311      CG331       HGA3
    8     7    22    60	 9 ;      NG2S1      CG311      CG331       HGA3
    8     7    22    61	 9 ;      NG2S1      CG311      CG331       HGA3
   44     7    22    59	 9 ;       HGA1      CG311      CG331       HGA3
   44     7    22    60	 9 ;       HGA1      CG311      CG331       HGA3
   44     7    22    61	 9 ;       HGA1      CG311      CG331       HGA3
   22     7     8     9	 9 ;      CG331      CG311      NG2S1      CG2O1
   22     7     8    24	 9 ;      CG331      CG311      NG2S1       HGP1
    5     7     8     9	 9 ;      CG2O1      CG311      NG2S1      CG2O1
    5     7     8    24	 9 ;      CG2O1      CG311      NG2S1       HGP1
   44     7     8     9	 9 ;       HGA1      CG311      NG2S1      CG2O1
   44     7     8    24	 9 ;       HGA1      CG311      NG2S1       HGP1
    7     8     9    10	 9 ;      CG311      NG2S1      CG2O1      OG2D1
    7     8     9    11	 9 ;      CG311      NG2S1      CG2O1      CG314
   24     8     9    10	 9 ;       HGP1      NG2S1      CG2O1      OG2D1
   24     8     9    11	 9 ;       HGP1      NG2S1      CG2O1      CG314
   10     9    11    12	 9 ;      OG2D1      CG2O1      CG314      NG3P2
   10     9    11    16	 9 ;      OG2D1      CG2O1      CG314      CG311
   10     9    11    45	 9 ;      OG2D1      CG2O1      CG314       HGA1
    8     9    11    12	 9 ;      NG2S1      CG2O1      CG314      NG3P2
    8     9    11    16	 9 ;      NG2S1      CG2O1      CG314      CG311
    8     9    11    45	 9 ;      NG2S1      CG2O1      CG314       HGA1
    9    11    12    25	 9 ;      CG2O1      CG314      NG3P2       HGP2
    9    11    12    26	 9 ;      CG2O1      CG314      NG3P2       HGP2
    9    11    12    13	 9 ;      CG2O1      CG314      NG3P2      CG324
   16    11    12    25	 9 ;      CG311      CG314      NG3P2       HGP2
   16    11    12    26	 9 ;      CG311      CG314      NG3P2       HGP2
   16    11    12    13	 9 ;      CG311      CG314      NG3P2      CG324
   45    11    12    25	 9 ;       HGA1      CG314      NG3P2       HGP2
   45    11    12    26	 9 ;       HGA1      CG314      NG3P2       HGP2
   45    11    12    13	 9 ;       HGA1      CG314      NG3P2      CG324
    9    11    16    17	 9 ;      CG2O1      CG314      CG311      SG311
    9    11    16    15	 9 ;      CG2O1      CG314      CG311      CG321
    9    11    16    52	 9 ;      CG2O1      CG314      CG311       HGA1
   12    11    16    17	 9 ;      NG3P2      CG314      CG311      SG311
   12    11    16    15	 9 ;      NG3P2      CG314      CG311      CG321
   12    11    16    52	 9 ;      NG3P2      CG314      CG311       HGA1
   45    11    16    17	 9 ;       HGA1      CG314      CG311      SG311
   45    11    16    15	 9 ;       HGA1      CG314      CG311      CG321
   45    11    16    52	 9 ;       HGA1      CG314      CG311       HGA1
   25    12    13    14	 9 ;       HGP2      NG3P2      CG324      CG321
   25    12    13    46	 9 ;       HGP2      NG3P2      CG324       HGA2
   25    12    13    47	 9 ;       HGP2      NG3P2      CG324       HGA2
   11    12    13    14	 9 ;      CG314      NG3P2      CG324      CG321
   11    12    13    46	 9 ;      CG314      NG3P2      CG324       HGA2
   11    12    13    47	 9 ;      CG314      NG3P2      CG324       HGA2
   26    12    13    14	 9 ;       HGP2      NG3P2      CG324      CG321
   26    12    13    46	 9 ;       HGP2      NG3P2      CG324       HGA2
   26    12    13    47	 9 ;       HGP2      NG3P2      CG324       HGA2
   12    13    14    15	 9 ;      NG3P2      CG324      CG321      CG321
   12    13    14    48	 9 ;      NG3P2      CG324      CG321       HGA2
   12    13    14    49	 9 ;      NG3P2      CG324      CG321       HGA2
   46    13    14    15	 9 ;       HGA2      CG324      CG321      CG321
   46    13    14    48	 9 ;       HGA2      CG324      CG321       HGA2
   46    13    14    49	 9 ;       HGA2      CG324      CG321       HGA2
   47    13    14    15	 9 ;       HGA2      CG324      CG321      CG321
   47    13    14    48	 9 ;       HGA2      CG324      CG321       HGA2
   47    13    14    49	 9 ;       HGA2      CG324      CG321       HGA2
   13    14    15    16	 9 ;      CG324      CG321      CG321      CG311
   13    14    15    50	 9 ;      CG324      CG321      CG321       HGA2
   13    14    15    51	 9 ;      CG324      CG321      CG321       HGA2
   48    14    15    16	 9 ;       HGA2      CG321      CG321      CG311
   48    14    15    50	 9 ;       HGA2      CG321      CG321       HGA2
   48    14    15    51	 9 ;       HGA2      CG321      CG321       HGA2
   49    14    15    16	 9 ;       HGA2      CG321      CG321      CG311
   49    14    15    50	 9 ;       HGA2      CG321      CG321       HGA2
   49    14    15    51	 9 ;       HGA2      CG321      CG321       HGA2
   14    15    16    11	 9 ;      CG321      CG321      CG311      CG314
   14    15    16    17	 9 ;      CG321      CG321      CG311      SG311
   14    15    16    52	 9 ;      CG321      CG321      CG311       HGA1
   50    15    16    11	 9 ;       HGA2      CG321      CG311      CG314
   50    15    16    17	 9 ;       HGA2      CG321      CG311      SG311
   50    15    16    52	 9 ;       HGA2      CG321      CG311       HGA1
   51    15    16    11	 9 ;       HGA2      CG321      CG311      CG314
   51    15    16    17	 9 ;       HGA2      CG321      CG311      SG311
   51    15    16    52	 9 ;       HGA2      CG321      CG311       HGA1
   11    16    17    18	 9 ;      CG314      CG311      SG311      CG321
   15    16    17    18	 9 ;      CG321      CG311      SG311      CG321
   52    16    17    18	 9 ;       HGA1      CG311      SG311      CG321
   16    17    18    19	 9 ;      CG311      SG311      CG321      CG2D1
   16    17    18    53	 9 ;      CG311      SG311      CG321       HGA2
   16    17    18    54	 9 ;      CG311      SG311      CG321       HGA2
   17    18    19    20	 9 ;      SG311      CG321      CG2D1      CG2D1
   17    18    19    55	 9 ;      SG311      CG321      CG2D1       HGA4
   53    18    19    20	 9 ;       HGA2      CG321      CG2D1      CG2D1
   53    18    19    55	 9 ;       HGA2      CG321      CG2D1       HGA4
   54    18    19    20	 9 ;       HGA2      CG321      CG2D1      CG2D1
   54    18    19    55	 9 ;       HGA2      CG321      CG2D1       HGA4
   18    19    20    21	 9 ;      CG321      CG2D1      CG2D1      CG321
   18    19    20    56	 9 ;      CG321      CG2D1      CG2D1       HGA4
   55    19    20    21	 9 ;       HGA4      CG2D1      CG2D1      CG321
   55    19    20    56	 9 ;       HGA4      CG2D1      CG2D1       HGA4
   19    20    21     1	 9 ;      CG2D1      CG2D1      CG321      SG311
   19    20    21    57	 9 ;      CG2D1      CG2D1      CG321       HGA2
   19    20    21    58	 9 ;      CG2D1      CG2D1      CG321       HGA2
   56    20    21     1	 9 ;       HGA4      CG2D1      CG321      SG311
   56    20    21    57	 9 ;       HGA4      CG2D1      CG321       HGA2
   56    20    21    58	 9 ;       HGA4      CG2D1      CG321       HGA2
    3    27    28    29	 9 ;      CG311      CG311      OG311       HGP1
   30    27    28    29	 9 ;      CG321      CG311      OG311       HGP1
   62    27    28    29	 9 ;       HGA1      CG311      OG311       HGP1
   28    27    30    31	 9 ;      OG311      CG311      CG321      CG311
   28    27    30    63	 9 ;      OG311      CG311      CG321       HGA2
   28    27    30    64	 9 ;      OG311      CG311      CG321       HGA2
    3    27    30    31	 9 ;      CG311      CG311      CG321      CG311
    3    27    30    63	 9 ;      CG311      CG311      CG321       HGA2
    3    27    30    64	 9 ;      CG311      CG311      CG321       HGA2
   62    27    30    31	 9 ;       HGA1      CG311      CG321      CG311
   62    27    30    63	 9 ;       HGA1      CG311      CG321       HGA2
   62    27    30    64	 9 ;       HGA1      CG311      CG321       HGA2
   27    30    31    33	 9 ;      CG311      CG321      CG311      CG2O1
   27    30    31    32	 9 ;      CG311      CG321      CG311      CG331
   27    30    31    65	 9 ;      CG311      CG321      CG311       HGA1
   63    30    31    33	 9 ;       HGA2      CG321      CG311      CG2O1
   63    30    31    32	 9 ;       HGA2      CG321      CG311      CG331
   63    30    31    65	 9 ;       HGA2      CG321      CG311       HGA1
   64    30    31    33	 9 ;       HGA2      CG321      CG311      CG2O1
   64    30    31    32	 9 ;       HGA2      CG321      CG311      CG331
   64    30    31    65	 9 ;       HGA2      CG321      CG311       HGA1
   30    31    33    34	 9 ;      CG321      CG311      CG2O1      OG2D1
   30    31    33    35	 9 ;      CG321      CG311      CG2O1      NG2S1
   32    31    33    34	 9 ;      CG331      CG311      CG2O1      OG2D1
   32    31    33    35	 9 ;      CG331      CG311      CG2O1      NG2S1
   65    31    33    34	 9 ;       HGA1      CG311      CG2O1      OG2D1
   65    31    33    35	 9 ;       HGA1      CG311      CG2O1      NG2S1
   33    31    32    66	 9 ;      CG2O1      CG311      CG331       HGA3
   33    31    32    67	 9 ;      CG2O1      CG311      CG331       HGA3
   33    31    32    68	 9 ;      CG2O1      CG311      CG331       HGA3
   30    31    32    66	 9 ;      CG321      CG311      CG331       HGA3
   30    31    32    67	 9 ;      CG321      CG311      CG331       HGA3
   30    31    32    68	 9 ;      CG321      CG311      CG331       HGA3
   65    31    32    66	 9 ;       HGA1      CG311      CG331       HGA3
   65    31    32    67	 9 ;       HGA1      CG311      CG331       HGA3
   65    31    32    68	 9 ;       HGA1      CG311      CG331       HGA3
   34    33    35    37	 9 ;      OG2D1      CG2O1      NG2S1      CG321
   34    33    35    36	 9 ;      OG2D1      CG2O1      NG2S1       HGP1
   31    33    35    37	 9 ;      CG311      CG2O1      NG2S1      CG321
   31    33    35    36	 9 ;      CG311      CG2O1      NG2S1       HGP1
   33    35    37    38	 9 ;      CG2O1      NG2S1      CG321      CG321
   33    35    37    69	 9 ;      CG2O1      NG2S1      CG321       HGA2
   33    35    37    70	 9 ;      CG2O1      NG2S1      CG321       HGA2
   36    35    37    38	 9 ;       HGP1      NG2S1      CG321      CG321
   36    35    37    69	 9 ;       HGP1      NG2S1      CG321       HGA2
   36    35    37    70	 9 ;       HGP1      NG2S1      CG321       HGA2
   35    37    38    39	 9 ;      NG2S1      CG321      CG321      CG321
   35    37    38    71	 9 ;      NG2S1      CG321      CG321       HGA2
   35    37    38    72	 9 ;      NG2S1      CG321      CG321       HGA2
   69    37    38    39	 9 ;       HGA2      CG321      CG321      CG321
   69    37    38    71	 9 ;       HGA2      CG321      CG321       HGA2
   69    37    38    72	 9 ;       HGA2      CG321      CG321       HGA2
   70    37    38    39	 9 ;       HGA2      CG321      CG321      CG321
   70    37    38    71	 9 ;       HGA2      CG321      CG321       HGA2
   70    37    38    72	 9 ;       HGA2      CG321      CG321       HGA2
   37    38    39    40	 9 ;      CG321      CG321      CG321      CG331
   37    38    39    73	 9 ;      CG321      CG321      CG321       HGA2
   37    38    39    74	 9 ;      CG321      CG321      CG321       HGA2
   71    38    39    40	 9 ;       HGA2      CG321      CG321      CG331
   71    38    39    73	 9 ;       HGA2      CG321      CG321       HGA2
   71    38    39    74	 9 ;       HGA2      CG321      CG321       HGA2
   72    38    39    40	 9 ;       HGA2      CG321      CG321      CG331
   72    38    39    73	 9 ;       HGA2      CG321      CG321       HGA2
   72    38    39    74	 9 ;       HGA2      CG321      CG321       HGA2
   38    39    40    75	 9 ;      CG321      CG321      CG331       HGA3
   38    39    40    76	 9 ;      CG321      CG321      CG331       HGA3
   38    39    40    77	 9 ;      CG321      CG321      CG331       HGA3
   73    39    40    75	 9 ;       HGA2      CG321      CG331       HGA3
   73    39    40    76	 9 ;       HGA2      CG321      CG331       HGA3
   73    39    40    77	 9 ;       HGA2      CG321      CG331       HGA3
   74    39    40    75	 9 ;       HGA2      CG321      CG331       HGA3
   74    39    40    76	 9 ;       HGA2      CG321      CG331       HGA3
   74    39    40    77	 9 ;       HGA2      CG321      CG331       HGA3

[ dihedrals ]
;	ai	  aj	ak	  al funct			  c0			c1			  c2			c3
    5     7     4     6	 2
    9    11     8    10	 2
   33    31    35    34	 2

