Gallium Rubidium Oxygen Manganese Argon Carbon Silicon
   77
    1LIG     S1    1  -1.667   0.834  -1.538
    1LIG     C1    2  -1.496   0.815  -1.478
    1LIG     C2    3  -1.388   0.833  -1.589
    1LIG     N1    4  -1.436   0.822  -1.730
    1LIG     C3    5  -1.498   0.717  -1.792
    1LIG     O1    6  -1.615   0.735  -1.827
    1LIG     C4    7  -1.423   0.585  -1.827
    1LIG     N2    8  -1.512   0.468  -1.812
    1LIG     C5    9  -1.631   0.449  -1.876
    1LIG     O2   10  -1.668   0.517  -1.973
    1LIG     C6   11  -1.739   0.354  -1.815
    1LIG     N3   12  -1.864   0.442  -1.795
    1LIG     C7   13  -1.990   0.369  -1.768
    1LIG     C8   14  -1.975   0.276  -1.648
    1LIG     C9   15  -1.836   0.275  -1.586
    1LIG    C10   16  -1.722   0.262  -1.691
    1LIG     S2   17  -1.554   0.244  -1.618
    1LIG    C11   18  -1.556   0.352  -1.472
    1LIG    C12   19  -1.593   0.494  -1.506
    1LIG    C13   20  -1.694   0.560  -1.449
    1LIG    C14   21  -1.756   0.695  -1.469
    1LIG    C15   22  -1.352   0.594  -1.961
    1LIG     H1   23  -1.500   0.900  -1.745
    1LIG     H2   24  -1.470   0.386  -1.768
    1LIG     H3   25  -1.871   0.498  -1.883
    1LIG     H4   26  -1.843   0.514  -1.725
    1LIG    C16   27  -1.259   0.755  -1.554
    1LIG     O3   28  -1.177   0.828  -1.462
    1LIG     H5   29  -1.174   0.921  -1.489
    1LIG    C17   30  -1.285   0.620  -1.489
    1LIG    C18   31  -1.164   0.529  -1.464
    1LIG    C19   32  -1.138   0.498  -1.317
    1LIG    C20   33  -1.192   0.400  -1.540
    1LIG     O4   34  -1.230   0.398  -1.656
    1LIG     N4   35  -1.170   0.285  -1.468
    1LIG     H6   36  -1.169   0.289  -1.367
    1LIG    C21   37  -1.196   0.159  -1.534
    1LIG    C22   38  -1.071   0.075  -1.546
    1LIG    C23   39  -0.987   0.091  -1.419
    1LIG    C24   40  -0.963  -0.043  -1.353
    1LIG    HC2   41  -1.479   0.889  -1.400
    1LIG    HC3   42  -1.486   0.716  -1.434
    1LIG     HC   43  -1.358   0.938  -1.580
    1LIG    HC1   44  -1.345   0.574  -1.752
    1LIG    HC4   45  -1.765   0.287  -1.896
    1LIG    HC5   46  -2.069   0.442  -1.748
    1LIG    HC6   47  -2.017   0.310  -1.856
    1LIG    HC7   48  -2.046   0.308  -1.572
    1LIG    HC8   49  -2.000   0.175  -1.680
    1LIG    HC9   50  -1.829   0.191  -1.517
    1LIG   HC10   51  -1.821   0.368  -1.531
    1LIG   HC11   52  -1.741   0.162  -1.732
    1LIG   HC12   53  -1.457   0.352  -1.427
    1LIG   HC13   54  -1.628   0.313  -1.399
    1LIG   HC14   55  -1.535   0.545  -1.581
    1LIG   HC15   56  -1.743   0.503  -1.371
    1LIG   HC16   57  -1.791   0.727  -1.371
    1LIG   HC17   58  -1.845   0.680  -1.531
    1LIG   HC18   59  -1.301   0.499  -1.981
    1LIG   HC19   60  -1.425   0.613  -2.040
    1LIG   HC20   61  -1.279   0.674  -1.958
    1LIG   HC21   62  -1.202   0.739  -1.645
    1LIG   HC22   63  -1.333   0.638  -1.393
    1LIG   HC23   64  -1.356   0.566  -1.552
    1LIG   HC24   65  -1.075   0.576  -1.507
    1LIG   HC25   66  -1.118   0.591  -1.263
    1LIG   HC26   67  -1.225   0.449  -1.274
    1LIG   HC27   68  -1.052   0.432  -1.308
    1LIG   HC28   69  -1.235   0.179  -1.634
    1LIG   HC29   70  -1.271   0.104  -1.477
    1LIG   HC30   71  -1.013   0.109  -1.632
    1LIG   HC31   72  -1.098  -0.029  -1.559
    1LIG   HC32   73  -0.891   0.135  -1.446
    1LIG   HC33   74  -1.039   0.157  -1.350
    1LIG   HC34   75  -0.903  -0.029  -1.263
    1LIG   HC35   76  -1.059  -0.088  -1.326
    1LIG   HC36   77  -0.910  -0.109  -1.421
   0.00000   0.00000   0.00000
