; Created by cgenff_charmm2gmx.py

[ moleculetype ]
; Name			   nrexcl
LIG				 3

[ atoms ]
;	 nr		  type	resnr residue  atom   cgnr	   charge		mass  typeB    chargeB		massB
; residue	 1 LIG rtp LIG q	qsum
     1      NG3P2      1    LIG     N1      1     -0.450     14.007   ;
     2       HGP2      1    LIG     H1      2      0.341      1.008   ;
     3       HGP2      1    LIG     H2      3      0.341      1.008   ;
     4      CG324      1    LIG     C1      4      0.208     12.011   ;
     5      CG311      1    LIG     C2      5      0.089     12.011   ;
     6      CG311      1    LIG     C3      6     -0.007     12.011   ;
     7      NG2S1      1    LIG     N2      7     -0.339     14.007   ;
     8      CG2O1      1    LIG     C4      8      0.488     12.011   ;
     9      OG2D1      1    LIG     O1      9     -0.509     15.999   ;
    10      CG331      1    LIG     C5     10     -0.270     12.011   ;
    11       HGP1      1    LIG     H3     11      0.261      1.008   ;
    12      CG321      1    LIG     C6     12     -0.153     12.011   ;
    13     CG2R61      1    LIG     C7     13      0.057     12.011   ;
    14     CG2R61      1    LIG     C8     14     -0.218     12.011   ;
    15     CG2R66      1    LIG     C9     15      0.261     12.011   ;
    16       FGR1      1    LIG     F1     16     -0.210     18.998   ;
    17     CG2R61      1    LIG    C10     17     -0.240     12.011   ;
    18     CG2R66      1    LIG    C11     18      0.261     12.011   ;
    19     CG2R61      1    LIG    C12     19     -0.218     12.011   ;
    20       FGR1      1    LIG     F2     20     -0.210     18.998   ;
    21      OG311      1    LIG     O2     21     -0.625     15.999   ;
    22       HGP1      1    LIG     H4     22      0.415      1.008   ;
    23      CG301      1    LIG    C13     23      0.295     12.011   ;
    24      CG321      1    LIG    C14     24     -0.147     12.011   ;
    25      CG321      1    LIG    C15     25     -0.202     12.011   ;
    26      CG321      1    LIG    C16     26     -0.176     12.011   ;
    27      CG321      1    LIG    C17     27     -0.202     12.011   ;
    28      CG321      1    LIG    C18     28     -0.147     12.011   ;
    29     CG2R61      1    LIG    C19     29      0.085     12.011   ;
    30     CG2R61      1    LIG    C20     30     -0.132     12.011   ;
    31     CG2R61      1    LIG    C21     31      0.182     12.011   ;
    32     CG2R61      1    LIG    C22     32     -0.119     12.011   ;
    33     CG2R61      1    LIG    C23     33     -0.110     12.011   ;
    34     CG2R61      1    LIG    C24     34     -0.129     12.011   ;
    35     NG2R53      1    LIG     N3     35     -0.142     14.007   ;
    36     CG3C52      1    LIG    C25     36     -0.072     12.011   ;
    37     CG3C52      1    LIG    C26     37      0.034     12.011   ;
    38     NG2R53      1    LIG     N4     38     -0.840     14.007   ;
    39     CG2R53      1    LIG    C27     39      0.632     12.011   ;
    40       HGP1      1    LIG     H5     40      0.351      1.008   ;
    41      OG2D1      1    LIG     O3     41     -0.502     15.999   ;
    42       HGA2      1    LIG    HC2     42      0.090      1.008   ;
    43       HGA2      1    LIG    HC3     43      0.090      1.008   ;
    44       HGA1      1    LIG     HC     44      0.090      1.008   ;
    45       HGA1      1    LIG    HC1     45      0.090      1.008   ;
    46       HGA3      1    LIG    HC4     46      0.090      1.008   ;
    47       HGA3      1    LIG    HC5     47      0.090      1.008   ;
    48       HGA3      1    LIG    HC6     48      0.090      1.008   ;
    49       HGA2      1    LIG    HC7     49      0.090      1.008   ;
    50       HGA2      1    LIG    HC8     50      0.090      1.008   ;
    51      HGR62      1    LIG    HC9     51      0.174      1.008   ;
    52      HGR62      1    LIG   HC10     52      0.186      1.008   ;
    53      HGR62      1    LIG   HC11     53      0.174      1.008   ;
    54       HGA2      1    LIG   HC12     54      0.090      1.008   ;
    55       HGA2      1    LIG   HC13     55      0.090      1.008   ;
    56       HGA2      1    LIG   HC14     56      0.090      1.008   ;
    57       HGA2      1    LIG   HC15     57      0.090      1.008   ;
    58       HGA2      1    LIG   HC16     58      0.090      1.008   ;
    59       HGA2      1    LIG   HC17     59      0.090      1.008   ;
    60       HGA2      1    LIG   HC18     60      0.090      1.008   ;
    61       HGA2      1    LIG   HC19     61      0.090      1.008   ;
    62       HGA2      1    LIG   HC20     62      0.090      1.008   ;
    63       HGA2      1    LIG   HC21     63      0.090      1.008   ;
    64      HGR61      1    LIG   HC22     64      0.116      1.008   ;
    65      HGR61      1    LIG   HC23     65      0.116      1.008   ;
    66      HGR61      1    LIG   HC24     66      0.116      1.008   ;
    67      HGR61      1    LIG   HC25     67      0.116      1.008   ;
    68       HGA2      1    LIG   HC26     68      0.090      1.008   ;
    69       HGA2      1    LIG   HC27     69      0.090      1.008   ;
    70       HGA2      1    LIG   HC28     70      0.090      1.008   ;
    71       HGA2      1    LIG   HC29     71      0.090      1.008   ;

[ bonds ]
;	ai	  aj funct			  c0			c1			  c2			c3
    1     4	 1 ;       NG3P2      CG324
    1     2	 1 ;       NG3P2       HGP2
    1     3	 1 ;       NG3P2       HGP2
    1    23	 1 ;       NG3P2      CG301
    4     5	 1 ;       CG324      CG311
    4    42	 1 ;       CG324       HGA2
    4    43	 1 ;       CG324       HGA2
    5    21	 1 ;       CG311      OG311
    5     6	 1 ;       CG311      CG311
    5    44	 1 ;       CG311       HGA1
    6    12	 1 ;       CG311      CG321
    6     7	 1 ;       CG311      NG2S1
    6    45	 1 ;       CG311       HGA1
    7     8	 1 ;       NG2S1      CG2O1
    7    11	 1 ;       NG2S1       HGP1
    8     9	 1 ;       CG2O1      OG2D1
    8    10	 1 ;       CG2O1      CG331
   10    46	 1 ;       CG331       HGA3
   10    47	 1 ;       CG331       HGA3
   10    48	 1 ;       CG331       HGA3
   12    13	 1 ;       CG321     CG2R61
   12    49	 1 ;       CG321       HGA2
   12    50	 1 ;       CG321       HGA2
   13    14	 1 ;      CG2R61     CG2R61
   13    19	 1 ;      CG2R61     CG2R61
   14    15	 1 ;      CG2R61     CG2R66
   14    51	 1 ;      CG2R61      HGR62
   15    16	 1 ;      CG2R66       FGR1
   15    17	 1 ;      CG2R66     CG2R61
   17    18	 1 ;      CG2R61     CG2R66
   17    52	 1 ;      CG2R61      HGR62
   18    19	 1 ;      CG2R66     CG2R61
   18    20	 1 ;      CG2R66       FGR1
   19    53	 1 ;      CG2R61      HGR62
   21    22	 1 ;       OG311       HGP1
   23    29	 1 ;       CG301     CG2R61
   23    24	 1 ;       CG301      CG321
   23    28	 1 ;       CG301      CG321
   24    25	 1 ;       CG321      CG321
   24    54	 1 ;       CG321       HGA2
   24    55	 1 ;       CG321       HGA2
   25    26	 1 ;       CG321      CG321
   25    56	 1 ;       CG321       HGA2
   25    57	 1 ;       CG321       HGA2
   26    27	 1 ;       CG321      CG321
   26    58	 1 ;       CG321       HGA2
   26    59	 1 ;       CG321       HGA2
   27    28	 1 ;       CG321      CG321
   27    60	 1 ;       CG321       HGA2
   27    61	 1 ;       CG321       HGA2
   28    62	 1 ;       CG321       HGA2
   28    63	 1 ;       CG321       HGA2
   29    30	 1 ;      CG2R61     CG2R61
   29    34	 1 ;      CG2R61     CG2R61
   30    31	 1 ;      CG2R61     CG2R61
   30    64	 1 ;      CG2R61      HGR61
   31    35	 1 ;      CG2R61     NG2R53
   31    32	 1 ;      CG2R61     CG2R61
   32    33	 1 ;      CG2R61     CG2R61
   32    65	 1 ;      CG2R61      HGR61
   33    34	 1 ;      CG2R61     CG2R61
   33    66	 1 ;      CG2R61      HGR61
   34    67	 1 ;      CG2R61      HGR61
   35    36	 1 ;      NG2R53     CG3C52
   35    39	 1 ;      NG2R53     CG2R53
   36    37	 1 ;      CG3C52     CG3C52
   36    68	 1 ;      CG3C52       HGA2
   36    69	 1 ;      CG3C52       HGA2
   37    38	 1 ;      CG3C52     NG2R53
   37    70	 1 ;      CG3C52       HGA2
   37    71	 1 ;      CG3C52       HGA2
   38    40	 1 ;      NG2R53       HGP1
   38    39	 1 ;      NG2R53     CG2R53
   39    41	 1 ;      CG2R53      OG2D1

[ pairs ]
;	ai	  aj funct			  c0			c1			  c2			c3
    1    21	 1
    1     6	 1
    1    44	 1
    1    30	 1
    1    34	 1
    1    25	 1
    1    54	 1
    1    55	 1
    1    27	 1
    1    62	 1
    1    63	 1
    2     5	 1
    2    42	 1
    2    43	 1
    2    29	 1
    2    24	 1
    2    28	 1
    3     5	 1
    3    42	 1
    3    43	 1
    3    29	 1
    3    24	 1
    3    28	 1
    4    29	 1
    4    24	 1
    4    28	 1
    4    22	 1
    4    12	 1
    4     7	 1
    4    45	 1
    5    23	 1
    5    13	 1
    5    49	 1
    5    50	 1
    5     8	 1
    5    11	 1
    6    42	 1
    6    43	 1
    6    22	 1
    6     9	 1
    6    10	 1
    6    14	 1
    6    19	 1
    7    21	 1
    7    44	 1
    7    13	 1
    7    49	 1
    7    50	 1
    7    46	 1
    7    47	 1
    7    48	 1
    8    12	 1
    8    45	 1
    9    11	 1
    9    46	 1
    9    47	 1
    9    48	 1
   10    11	 1
   11    12	 1
   11    45	 1
   12    21	 1
   12    44	 1
   12    15	 1
   12    51	 1
   12    18	 1
   12    53	 1
   13    45	 1
   13    16	 1
   13    17	 1
   13    20	 1
   14    49	 1
   14    50	 1
   14    18	 1
   14    53	 1
   14    52	 1
   15    19	 1
   15    20	 1
   16    51	 1
   16    18	 1
   16    52	 1
   17    51	 1
   17    53	 1
   19    49	 1
   19    50	 1
   19    51	 1
   19    52	 1
   20    52	 1
   20    53	 1
   21    42	 1
   21    43	 1
   21    45	 1
   22    44	 1
   23    42	 1
   23    43	 1
   23    26	 1
   23    56	 1
   23    57	 1
   23    60	 1
   23    61	 1
   23    31	 1
   23    64	 1
   23    33	 1
   23    67	 1
   24    30	 1
   24    34	 1
   24    27	 1
   24    62	 1
   24    63	 1
   24    58	 1
   24    59	 1
   25    29	 1
   25    28	 1
   25    60	 1
   25    61	 1
   26    54	 1
   26    55	 1
   26    62	 1
   26    63	 1
   27    29	 1
   27    56	 1
   27    57	 1
   28    30	 1
   28    34	 1
   28    54	 1
   28    55	 1
   28    58	 1
   28    59	 1
   29    54	 1
   29    55	 1
   29    62	 1
   29    63	 1
   29    35	 1
   29    32	 1
   29    66	 1
   30    33	 1
   30    67	 1
   30    36	 1
   30    39	 1
   30    65	 1
   31    34	 1
   31    66	 1
   31    37	 1
   31    68	 1
   31    69	 1
   31    38	 1
   31    41	 1
   32    64	 1
   32    36	 1
   32    39	 1
   32    67	 1
   33    35	 1
   34    64	 1
   34    65	 1
   35    64	 1
   35    65	 1
   35    70	 1
   35    71	 1
   35    40	 1
   36    41	 1
   36    40	 1
   37    41	 1
   38    68	 1
   38    69	 1
   39    68	 1
   39    69	 1
   39    70	 1
   39    71	 1
   40    70	 1
   40    71	 1
   40    41	 1
   42    44	 1
   43    44	 1
   44    45	 1
   45    49	 1
   45    50	 1
   54    56	 1
   54    57	 1
   55    56	 1
   55    57	 1
   56    58	 1
   56    59	 1
   57    58	 1
   57    59	 1
   58    60	 1
   58    61	 1
   59    60	 1
   59    61	 1
   60    62	 1
   60    63	 1
   61    62	 1
   61    63	 1
   65    66	 1
   66    67	 1
   68    70	 1
   68    71	 1
   69    70	 1
   69    71	 1

[ angles ]
;	ai	  aj	ak funct			c0			  c1			c2			  c3
    4     1     2	5 ;      CG324      NG3P2       HGP2
    4     1     3	5 ;      CG324      NG3P2       HGP2
    4     1    23	5 ;      CG324      NG3P2      CG301
    2     1     3	5 ;       HGP2      NG3P2       HGP2
    2     1    23	5 ;       HGP2      NG3P2      CG301
    3     1    23	5 ;       HGP2      NG3P2      CG301
    5     4     1	5 ;      CG311      CG324      NG3P2
    5     4    42	5 ;      CG311      CG324       HGA2
    5     4    43	5 ;      CG311      CG324       HGA2
    1     4    42	5 ;      NG3P2      CG324       HGA2
    1     4    43	5 ;      NG3P2      CG324       HGA2
   42     4    43	5 ;       HGA2      CG324       HGA2
   21     5     6	5 ;      OG311      CG311      CG311
   21     5     4	5 ;      OG311      CG311      CG324
   21     5    44	5 ;      OG311      CG311       HGA1
    6     5     4	5 ;      CG311      CG311      CG324
    6     5    44	5 ;      CG311      CG311       HGA1
    4     5    44	5 ;      CG324      CG311       HGA1
   12     6     5	5 ;      CG321      CG311      CG311
   12     6     7	5 ;      CG321      CG311      NG2S1
   12     6    45	5 ;      CG321      CG311       HGA1
    5     6     7	5 ;      CG311      CG311      NG2S1
    5     6    45	5 ;      CG311      CG311       HGA1
    7     6    45	5 ;      NG2S1      CG311       HGA1
    6     7     8	5 ;      CG311      NG2S1      CG2O1
    6     7    11	5 ;      CG311      NG2S1       HGP1
    8     7    11	5 ;      CG2O1      NG2S1       HGP1
    9     8     7	5 ;      OG2D1      CG2O1      NG2S1
    9     8    10	5 ;      OG2D1      CG2O1      CG331
    7     8    10	5 ;      NG2S1      CG2O1      CG331
    8    10    46	5 ;      CG2O1      CG331       HGA3
    8    10    47	5 ;      CG2O1      CG331       HGA3
    8    10    48	5 ;      CG2O1      CG331       HGA3
   46    10    47	5 ;       HGA3      CG331       HGA3
   46    10    48	5 ;       HGA3      CG331       HGA3
   47    10    48	5 ;       HGA3      CG331       HGA3
   13    12     6	5 ;     CG2R61      CG321      CG311
   13    12    49	5 ;     CG2R61      CG321       HGA2
   13    12    50	5 ;     CG2R61      CG321       HGA2
    6    12    49	5 ;      CG311      CG321       HGA2
    6    12    50	5 ;      CG311      CG321       HGA2
   49    12    50	5 ;       HGA2      CG321       HGA2
   12    13    14	5 ;      CG321     CG2R61     CG2R61
   12    13    19	5 ;      CG321     CG2R61     CG2R61
   14    13    19	5 ;     CG2R61     CG2R61     CG2R61
   13    14    15	5 ;     CG2R61     CG2R61     CG2R66
   13    14    51	5 ;     CG2R61     CG2R61      HGR62
   15    14    51	5 ;     CG2R66     CG2R61      HGR62
   14    15    16	5 ;     CG2R61     CG2R66       FGR1
   14    15    17	5 ;     CG2R61     CG2R66     CG2R61
   16    15    17	5 ;       FGR1     CG2R66     CG2R61
   15    17    18	5 ;     CG2R66     CG2R61     CG2R66
   15    17    52	5 ;     CG2R66     CG2R61      HGR62
   18    17    52	5 ;     CG2R66     CG2R61      HGR62
   19    18    17	5 ;     CG2R61     CG2R66     CG2R61
   19    18    20	5 ;     CG2R61     CG2R66       FGR1
   17    18    20	5 ;     CG2R61     CG2R66       FGR1
   13    19    18	5 ;     CG2R61     CG2R61     CG2R66
   13    19    53	5 ;     CG2R61     CG2R61      HGR62
   18    19    53	5 ;     CG2R66     CG2R61      HGR62
   22    21     5	5 ;       HGP1      OG311      CG311
    1    23    29	5 ;      NG3P2      CG301     CG2R61
    1    23    24	5 ;      NG3P2      CG301      CG321
    1    23    28	5 ;      NG3P2      CG301      CG321
   29    23    24	5 ;     CG2R61      CG301      CG321
   29    23    28	5 ;     CG2R61      CG301      CG321
   24    23    28	5 ;      CG321      CG301      CG321
   23    24    25	5 ;      CG301      CG321      CG321
   23    24    54	5 ;      CG301      CG321       HGA2
   23    24    55	5 ;      CG301      CG321       HGA2
   25    24    54	5 ;      CG321      CG321       HGA2
   25    24    55	5 ;      CG321      CG321       HGA2
   54    24    55	5 ;       HGA2      CG321       HGA2
   24    25    26	5 ;      CG321      CG321      CG321
   24    25    56	5 ;      CG321      CG321       HGA2
   24    25    57	5 ;      CG321      CG321       HGA2
   26    25    56	5 ;      CG321      CG321       HGA2
   26    25    57	5 ;      CG321      CG321       HGA2
   56    25    57	5 ;       HGA2      CG321       HGA2
   25    26    27	5 ;      CG321      CG321      CG321
   25    26    58	5 ;      CG321      CG321       HGA2
   25    26    59	5 ;      CG321      CG321       HGA2
   27    26    58	5 ;      CG321      CG321       HGA2
   27    26    59	5 ;      CG321      CG321       HGA2
   58    26    59	5 ;       HGA2      CG321       HGA2
   28    27    26	5 ;      CG321      CG321      CG321
   28    27    60	5 ;      CG321      CG321       HGA2
   28    27    61	5 ;      CG321      CG321       HGA2
   26    27    60	5 ;      CG321      CG321       HGA2
   26    27    61	5 ;      CG321      CG321       HGA2
   60    27    61	5 ;       HGA2      CG321       HGA2
   23    28    27	5 ;      CG301      CG321      CG321
   23    28    62	5 ;      CG301      CG321       HGA2
   23    28    63	5 ;      CG301      CG321       HGA2
   27    28    62	5 ;      CG321      CG321       HGA2
   27    28    63	5 ;      CG321      CG321       HGA2
   62    28    63	5 ;       HGA2      CG321       HGA2
   30    29    23	5 ;     CG2R61     CG2R61      CG301
   30    29    34	5 ;     CG2R61     CG2R61     CG2R61
   23    29    34	5 ;      CG301     CG2R61     CG2R61
   31    30    29	5 ;     CG2R61     CG2R61     CG2R61
   31    30    64	5 ;     CG2R61     CG2R61      HGR61
   29    30    64	5 ;     CG2R61     CG2R61      HGR61
   35    31    30	5 ;     NG2R53     CG2R61     CG2R61
   35    31    32	5 ;     NG2R53     CG2R61     CG2R61
   30    31    32	5 ;     CG2R61     CG2R61     CG2R61
   31    32    33	5 ;     CG2R61     CG2R61     CG2R61
   31    32    65	5 ;     CG2R61     CG2R61      HGR61
   33    32    65	5 ;     CG2R61     CG2R61      HGR61
   32    33    34	5 ;     CG2R61     CG2R61     CG2R61
   32    33    66	5 ;     CG2R61     CG2R61      HGR61
   34    33    66	5 ;     CG2R61     CG2R61      HGR61
   29    34    33	5 ;     CG2R61     CG2R61     CG2R61
   29    34    67	5 ;     CG2R61     CG2R61      HGR61
   33    34    67	5 ;     CG2R61     CG2R61      HGR61
   36    35    39	5 ;     CG3C52     NG2R53     CG2R53
   36    35    31	5 ;     CG3C52     NG2R53     CG2R61
   39    35    31	5 ;     CG2R53     NG2R53     CG2R61
   37    36    35	5 ;     CG3C52     CG3C52     NG2R53
   37    36    68	5 ;     CG3C52     CG3C52       HGA2
   37    36    69	5 ;     CG3C52     CG3C52       HGA2
   35    36    68	5 ;     NG2R53     CG3C52       HGA2
   35    36    69	5 ;     NG2R53     CG3C52       HGA2
   68    36    69	5 ;       HGA2     CG3C52       HGA2
   36    37    38	5 ;     CG3C52     CG3C52     NG2R53
   36    37    70	5 ;     CG3C52     CG3C52       HGA2
   36    37    71	5 ;     CG3C52     CG3C52       HGA2
   38    37    70	5 ;     NG2R53     CG3C52       HGA2
   38    37    71	5 ;     NG2R53     CG3C52       HGA2
   70    37    71	5 ;       HGA2     CG3C52       HGA2
   37    38    40	5 ;     CG3C52     NG2R53       HGP1
   37    38    39	5 ;     CG3C52     NG2R53     CG2R53
   40    38    39	5 ;       HGP1     NG2R53     CG2R53
   38    39    35	5 ;     NG2R53     CG2R53     NG2R53
   38    39    41	5 ;     NG2R53     CG2R53      OG2D1
   35    39    41	5 ;     NG2R53     CG2R53      OG2D1

[ dihedrals ]
;	ai	  aj	ak	  al funct			  c0			c1			  c2			c3			  c4			c5
    2     1     4     5	 9 ;       HGP2      NG3P2      CG324      CG311
    2     1     4    42	 9 ;       HGP2      NG3P2      CG324       HGA2
    2     1     4    43	 9 ;       HGP2      NG3P2      CG324       HGA2
    3     1     4     5	 9 ;       HGP2      NG3P2      CG324      CG311
    3     1     4    42	 9 ;       HGP2      NG3P2      CG324       HGA2
    3     1     4    43	 9 ;       HGP2      NG3P2      CG324       HGA2
   23     1     4     5	 9 ;      CG301      NG3P2      CG324      CG311
   23     1     4    42	 9 ;      CG301      NG3P2      CG324       HGA2
   23     1     4    43	 9 ;      CG301      NG3P2      CG324       HGA2
    4     1    23    29	 9 ;      CG324      NG3P2      CG301     CG2R61
    4     1    23    24	 9 ;      CG324      NG3P2      CG301      CG321
    4     1    23    28	 9 ;      CG324      NG3P2      CG301      CG321
    2     1    23    29	 9 ;       HGP2      NG3P2      CG301     CG2R61
    2     1    23    24	 9 ;       HGP2      NG3P2      CG301      CG321
    2     1    23    28	 9 ;       HGP2      NG3P2      CG301      CG321
    3     1    23    29	 9 ;       HGP2      NG3P2      CG301     CG2R61
    3     1    23    24	 9 ;       HGP2      NG3P2      CG301      CG321
    3     1    23    28	 9 ;       HGP2      NG3P2      CG301      CG321
    1     4     5    21	 9 ;      NG3P2      CG324      CG311      OG311
    1     4     5     6	 9 ;      NG3P2      CG324      CG311      CG311
    1     4     5    44	 9 ;      NG3P2      CG324      CG311       HGA1
   42     4     5    21	 9 ;       HGA2      CG324      CG311      OG311
   42     4     5     6	 9 ;       HGA2      CG324      CG311      CG311
   42     4     5    44	 9 ;       HGA2      CG324      CG311       HGA1
   43     4     5    21	 9 ;       HGA2      CG324      CG311      OG311
   43     4     5     6	 9 ;       HGA2      CG324      CG311      CG311
   43     4     5    44	 9 ;       HGA2      CG324      CG311       HGA1
    6     5    21    22	 9 ;      CG311      CG311      OG311       HGP1
    4     5    21    22	 9 ;      CG324      CG311      OG311       HGP1
   44     5    21    22	 9 ;       HGA1      CG311      OG311       HGP1
   21     5     6    12	 9 ;      OG311      CG311      CG311      CG321
   21     5     6     7	 9 ;      OG311      CG311      CG311      NG2S1
   21     5     6    45	 9 ;      OG311      CG311      CG311       HGA1
    4     5     6    12	 9 ;      CG324      CG311      CG311      CG321
    4     5     6     7	 9 ;      CG324      CG311      CG311      NG2S1
    4     5     6    45	 9 ;      CG324      CG311      CG311       HGA1
   44     5     6    12	 9 ;       HGA1      CG311      CG311      CG321
   44     5     6     7	 9 ;       HGA1      CG311      CG311      NG2S1
   44     5     6    45	 9 ;       HGA1      CG311      CG311       HGA1
    5     6    12    13	 9 ;      CG311      CG311      CG321     CG2R61
    5     6    12    49	 9 ;      CG311      CG311      CG321       HGA2
    5     6    12    50	 9 ;      CG311      CG311      CG321       HGA2
    7     6    12    13	 9 ;      NG2S1      CG311      CG321     CG2R61
    7     6    12    49	 9 ;      NG2S1      CG311      CG321       HGA2
    7     6    12    50	 9 ;      NG2S1      CG311      CG321       HGA2
   45     6    12    13	 9 ;       HGA1      CG311      CG321     CG2R61
   45     6    12    49	 9 ;       HGA1      CG311      CG321       HGA2
   45     6    12    50	 9 ;       HGA1      CG311      CG321       HGA2
   12     6     7     8	 9 ;      CG321      CG311      NG2S1      CG2O1
   12     6     7    11	 9 ;      CG321      CG311      NG2S1       HGP1
    5     6     7     8	 9 ;      CG311      CG311      NG2S1      CG2O1
    5     6     7    11	 9 ;      CG311      CG311      NG2S1       HGP1
   45     6     7     8	 9 ;       HGA1      CG311      NG2S1      CG2O1
   45     6     7    11	 9 ;       HGA1      CG311      NG2S1       HGP1
    6     7     8     9	 9 ;      CG311      NG2S1      CG2O1      OG2D1
    6     7     8    10	 9 ;      CG311      NG2S1      CG2O1      CG331
   11     7     8     9	 9 ;       HGP1      NG2S1      CG2O1      OG2D1
   11     7     8    10	 9 ;       HGP1      NG2S1      CG2O1      CG331
    9     8    10    46	 9 ;      OG2D1      CG2O1      CG331       HGA3
    9     8    10    47	 9 ;      OG2D1      CG2O1      CG331       HGA3
    9     8    10    48	 9 ;      OG2D1      CG2O1      CG331       HGA3
    7     8    10    46	 9 ;      NG2S1      CG2O1      CG331       HGA3
    7     8    10    47	 9 ;      NG2S1      CG2O1      CG331       HGA3
    7     8    10    48	 9 ;      NG2S1      CG2O1      CG331       HGA3
    6    12    13    14	 9 ;      CG311      CG321     CG2R61     CG2R61
    6    12    13    19	 9 ;      CG311      CG321     CG2R61     CG2R61
   49    12    13    14	 9 ;       HGA2      CG321     CG2R61     CG2R61
   49    12    13    19	 9 ;       HGA2      CG321     CG2R61     CG2R61
   50    12    13    14	 9 ;       HGA2      CG321     CG2R61     CG2R61
   50    12    13    19	 9 ;       HGA2      CG321     CG2R61     CG2R61
   12    13    14    15	 9 ;      CG321     CG2R61     CG2R61     CG2R66
   12    13    14    51	 9 ;      CG321     CG2R61     CG2R61      HGR62
   19    13    14    15	 9 ;     CG2R61     CG2R61     CG2R61     CG2R66
   19    13    14    51	 9 ;     CG2R61     CG2R61     CG2R61      HGR62
   12    13    19    18	 9 ;      CG321     CG2R61     CG2R61     CG2R66
   12    13    19    53	 9 ;      CG321     CG2R61     CG2R61      HGR62
   14    13    19    18	 9 ;     CG2R61     CG2R61     CG2R61     CG2R66
   14    13    19    53	 9 ;     CG2R61     CG2R61     CG2R61      HGR62
   13    14    15    16	 9 ;     CG2R61     CG2R61     CG2R66       FGR1
   13    14    15    17	 9 ;     CG2R61     CG2R61     CG2R66     CG2R61
   51    14    15    16	 9 ;      HGR62     CG2R61     CG2R66       FGR1
   51    14    15    17	 9 ;      HGR62     CG2R61     CG2R66     CG2R61
   14    15    17    18	 9 ;     CG2R61     CG2R66     CG2R61     CG2R66
   14    15    17    52	 9 ;     CG2R61     CG2R66     CG2R61      HGR62
   16    15    17    18	 9 ;       FGR1     CG2R66     CG2R61     CG2R66
   16    15    17    52	 9 ;       FGR1     CG2R66     CG2R61      HGR62
   15    17    18    19	 9 ;     CG2R66     CG2R61     CG2R66     CG2R61
   15    17    18    20	 9 ;     CG2R66     CG2R61     CG2R66       FGR1
   52    17    18    19	 9 ;      HGR62     CG2R61     CG2R66     CG2R61
   52    17    18    20	 9 ;      HGR62     CG2R61     CG2R66       FGR1
   17    18    19    13	 9 ;     CG2R61     CG2R66     CG2R61     CG2R61
   17    18    19    53	 9 ;     CG2R61     CG2R66     CG2R61      HGR62
   20    18    19    13	 9 ;       FGR1     CG2R66     CG2R61     CG2R61
   20    18    19    53	 9 ;       FGR1     CG2R66     CG2R61      HGR62
    1    23    29    30	 9 ;      NG3P2      CG301     CG2R61     CG2R61
    1    23    29    34	 9 ;      NG3P2      CG301     CG2R61     CG2R61
   24    23    29    30	 9 ;      CG321      CG301     CG2R61     CG2R61
   24    23    29    34	 9 ;      CG321      CG301     CG2R61     CG2R61
   28    23    29    30	 9 ;      CG321      CG301     CG2R61     CG2R61
   28    23    29    34	 9 ;      CG321      CG301     CG2R61     CG2R61
    1    23    24    25	 9 ;      NG3P2      CG301      CG321      CG321
    1    23    24    54	 9 ;      NG3P2      CG301      CG321       HGA2
    1    23    24    55	 9 ;      NG3P2      CG301      CG321       HGA2
   29    23    24    25	 9 ;     CG2R61      CG301      CG321      CG321
   29    23    24    54	 9 ;     CG2R61      CG301      CG321       HGA2
   29    23    24    55	 9 ;     CG2R61      CG301      CG321       HGA2
   28    23    24    25	 9 ;      CG321      CG301      CG321      CG321
   28    23    24    54	 9 ;      CG321      CG301      CG321       HGA2
   28    23    24    55	 9 ;      CG321      CG301      CG321       HGA2
    1    23    28    27	 9 ;      NG3P2      CG301      CG321      CG321
    1    23    28    62	 9 ;      NG3P2      CG301      CG321       HGA2
    1    23    28    63	 9 ;      NG3P2      CG301      CG321       HGA2
   29    23    28    27	 9 ;     CG2R61      CG301      CG321      CG321
   29    23    28    62	 9 ;     CG2R61      CG301      CG321       HGA2
   29    23    28    63	 9 ;     CG2R61      CG301      CG321       HGA2
   24    23    28    27	 9 ;      CG321      CG301      CG321      CG321
   24    23    28    62	 9 ;      CG321      CG301      CG321       HGA2
   24    23    28    63	 9 ;      CG321      CG301      CG321       HGA2
   23    24    25    26	 9 ;      CG301      CG321      CG321      CG321
   23    24    25    56	 9 ;      CG301      CG321      CG321       HGA2
   23    24    25    57	 9 ;      CG301      CG321      CG321       HGA2
   54    24    25    26	 9 ;       HGA2      CG321      CG321      CG321
   54    24    25    56	 9 ;       HGA2      CG321      CG321       HGA2
   54    24    25    57	 9 ;       HGA2      CG321      CG321       HGA2
   55    24    25    26	 9 ;       HGA2      CG321      CG321      CG321
   55    24    25    56	 9 ;       HGA2      CG321      CG321       HGA2
   55    24    25    57	 9 ;       HGA2      CG321      CG321       HGA2
   24    25    26    27	 9 ;      CG321      CG321      CG321      CG321
   24    25    26    58	 9 ;      CG321      CG321      CG321       HGA2
   24    25    26    59	 9 ;      CG321      CG321      CG321       HGA2
   56    25    26    27	 9 ;       HGA2      CG321      CG321      CG321
   56    25    26    58	 9 ;       HGA2      CG321      CG321       HGA2
   56    25    26    59	 9 ;       HGA2      CG321      CG321       HGA2
   57    25    26    27	 9 ;       HGA2      CG321      CG321      CG321
   57    25    26    58	 9 ;       HGA2      CG321      CG321       HGA2
   57    25    26    59	 9 ;       HGA2      CG321      CG321       HGA2
   25    26    27    28	 9 ;      CG321      CG321      CG321      CG321
   25    26    27    60	 9 ;      CG321      CG321      CG321       HGA2
   25    26    27    61	 9 ;      CG321      CG321      CG321       HGA2
   58    26    27    28	 9 ;       HGA2      CG321      CG321      CG321
   58    26    27    60	 9 ;       HGA2      CG321      CG321       HGA2
   58    26    27    61	 9 ;       HGA2      CG321      CG321       HGA2
   59    26    27    28	 9 ;       HGA2      CG321      CG321      CG321
   59    26    27    60	 9 ;       HGA2      CG321      CG321       HGA2
   59    26    27    61	 9 ;       HGA2      CG321      CG321       HGA2
   26    27    28    23	 9 ;      CG321      CG321      CG321      CG301
   26    27    28    62	 9 ;      CG321      CG321      CG321       HGA2
   26    27    28    63	 9 ;      CG321      CG321      CG321       HGA2
   60    27    28    23	 9 ;       HGA2      CG321      CG321      CG301
   60    27    28    62	 9 ;       HGA2      CG321      CG321       HGA2
   60    27    28    63	 9 ;       HGA2      CG321      CG321       HGA2
   61    27    28    23	 9 ;       HGA2      CG321      CG321      CG301
   61    27    28    62	 9 ;       HGA2      CG321      CG321       HGA2
   61    27    28    63	 9 ;       HGA2      CG321      CG321       HGA2
   23    29    30    31	 9 ;      CG301     CG2R61     CG2R61     CG2R61
   23    29    30    64	 9 ;      CG301     CG2R61     CG2R61      HGR61
   34    29    30    31	 9 ;     CG2R61     CG2R61     CG2R61     CG2R61
   34    29    30    64	 9 ;     CG2R61     CG2R61     CG2R61      HGR61
   30    29    34    33	 9 ;     CG2R61     CG2R61     CG2R61     CG2R61
   30    29    34    67	 9 ;     CG2R61     CG2R61     CG2R61      HGR61
   23    29    34    33	 9 ;      CG301     CG2R61     CG2R61     CG2R61
   23    29    34    67	 9 ;      CG301     CG2R61     CG2R61      HGR61
   29    30    31    35	 9 ;     CG2R61     CG2R61     CG2R61     NG2R53
   29    30    31    32	 9 ;     CG2R61     CG2R61     CG2R61     CG2R61
   64    30    31    35	 9 ;      HGR61     CG2R61     CG2R61     NG2R53
   64    30    31    32	 9 ;      HGR61     CG2R61     CG2R61     CG2R61
   30    31    35    36	 9 ;     CG2R61     CG2R61     NG2R53     CG3C52
   30    31    35    39	 9 ;     CG2R61     CG2R61     NG2R53     CG2R53
   32    31    35    36	 9 ;     CG2R61     CG2R61     NG2R53     CG3C52
   32    31    35    39	 9 ;     CG2R61     CG2R61     NG2R53     CG2R53
   35    31    32    33	 9 ;     NG2R53     CG2R61     CG2R61     CG2R61
   35    31    32    65	 9 ;     NG2R53     CG2R61     CG2R61      HGR61
   30    31    32    33	 9 ;     CG2R61     CG2R61     CG2R61     CG2R61
   30    31    32    65	 9 ;     CG2R61     CG2R61     CG2R61      HGR61
   31    32    33    34	 9 ;     CG2R61     CG2R61     CG2R61     CG2R61
   31    32    33    66	 9 ;     CG2R61     CG2R61     CG2R61      HGR61
   65    32    33    34	 9 ;      HGR61     CG2R61     CG2R61     CG2R61
   65    32    33    66	 9 ;      HGR61     CG2R61     CG2R61      HGR61
   32    33    34    29	 9 ;     CG2R61     CG2R61     CG2R61     CG2R61
   32    33    34    67	 9 ;     CG2R61     CG2R61     CG2R61      HGR61
   66    33    34    29	 9 ;      HGR61     CG2R61     CG2R61     CG2R61
   66    33    34    67	 9 ;      HGR61     CG2R61     CG2R61      HGR61
   39    35    36    37	 9 ;     CG2R53     NG2R53     CG3C52     CG3C52
   39    35    36    68	 9 ;     CG2R53     NG2R53     CG3C52       HGA2
   39    35    36    69	 9 ;     CG2R53     NG2R53     CG3C52       HGA2
   31    35    36    37	 9 ;     CG2R61     NG2R53     CG3C52     CG3C52
   31    35    36    68	 9 ;     CG2R61     NG2R53     CG3C52       HGA2
   31    35    36    69	 9 ;     CG2R61     NG2R53     CG3C52       HGA2
   36    35    39    38	 9 ;     CG3C52     NG2R53     CG2R53     NG2R53
   36    35    39    41	 9 ;     CG3C52     NG2R53     CG2R53      OG2D1
   31    35    39    38	 9 ;     CG2R61     NG2R53     CG2R53     NG2R53
   31    35    39    41	 9 ;     CG2R61     NG2R53     CG2R53      OG2D1
   35    36    37    38	 9 ;     NG2R53     CG3C52     CG3C52     NG2R53
   35    36    37    70	 9 ;     NG2R53     CG3C52     CG3C52       HGA2
   35    36    37    71	 9 ;     NG2R53     CG3C52     CG3C52       HGA2
   68    36    37    38	 9 ;       HGA2     CG3C52     CG3C52     NG2R53
   68    36    37    70	 9 ;       HGA2     CG3C52     CG3C52       HGA2
   68    36    37    71	 9 ;       HGA2     CG3C52     CG3C52       HGA2
   69    36    37    38	 9 ;       HGA2     CG3C52     CG3C52     NG2R53
   69    36    37    70	 9 ;       HGA2     CG3C52     CG3C52       HGA2
   69    36    37    71	 9 ;       HGA2     CG3C52     CG3C52       HGA2
   36    37    38    40	 9 ;     CG3C52     CG3C52     NG2R53       HGP1
   36    37    38    39	 9 ;     CG3C52     CG3C52     NG2R53     CG2R53
   70    37    38    40	 9 ;       HGA2     CG3C52     NG2R53       HGP1
   70    37    38    39	 9 ;       HGA2     CG3C52     NG2R53     CG2R53
   71    37    38    40	 9 ;       HGA2     CG3C52     NG2R53       HGP1
   71    37    38    39	 9 ;       HGA2     CG3C52     NG2R53     CG2R53
   37    38    39    35	 9 ;     CG3C52     NG2R53     CG2R53     NG2R53
   37    38    39    41	 9 ;     CG3C52     NG2R53     CG2R53      OG2D1
   40    38    39    35	 9 ;       HGP1     NG2R53     CG2R53     NG2R53
   40    38    39    41	 9 ;       HGP1     NG2R53     CG2R53      OG2D1

[ dihedrals ]
;	ai	  aj	ak	  al funct			  c0			c1			  c2			c3
    8    10     7     9	 2
   39    38    35    41	 2

