Gallium Rubidium Oxygen Manganese Argon Carbon Silicon
   71
    1LIG     N1    1  -1.631   0.262  -1.626
    1LIG     H1    2  -1.656   0.312  -1.713
    1LIG     H2    3  -1.663   0.166  -1.643
    1LIG     C1    4  -1.473   0.248  -1.630
    1LIG     C2    5  -1.393   0.380  -1.657
    1LIG     C3    6  -1.245   0.396  -1.592
    1LIG     N2    7  -1.230   0.377  -1.444
    1LIG     C4    8  -1.176   0.480  -1.368
    1LIG     O1    9  -1.168   0.595  -1.411
    1LIG     C5   10  -1.123   0.443  -1.231
    1LIG     H3   11  -1.210   0.283  -1.410
    1LIG     C6   12  -1.141   0.299  -1.661
    1LIG     C7   13  -1.098   0.191  -1.565
    1LIG     C8   14  -0.976   0.205  -1.498
    1LIG     C9   15  -0.918   0.095  -1.436
    1LIG     F1   16  -0.796   0.106  -1.383
    1LIG    C10   17  -0.981  -0.029  -1.438
    1LIG    C11   18  -1.105  -0.040  -1.497
    1LIG    C12   19  -1.167   0.068  -1.559
    1LIG     F2   20  -1.165  -0.161  -1.503
    1LIG     O2   21  -1.389   0.405  -1.798
    1LIG     H4   22  -1.478   0.387  -1.833
    1LIG    C13   23  -1.730   0.313  -1.514
    1LIG    C14   24  -1.651   0.343  -1.384
    1LIG    C15   25  -1.742   0.387  -1.268
    1LIG    C16   26  -1.849   0.283  -1.236
    1LIG    C17   27  -1.926   0.239  -1.360
    1LIG    C18   28  -1.832   0.200  -1.477
    1LIG    C19   29  -1.805   0.444  -1.566
    1LIG    C20   30  -1.746   0.572  -1.559
    1LIG    C21   31  -1.810   0.692  -1.599
    1LIG    C22   32  -1.944   0.685  -1.639
    1LIG    C23   33  -2.006   0.560  -1.648
    1LIG    C24   34  -1.938   0.442  -1.615
    1LIG     N3   35  -1.741   0.816  -1.600
    1LIG    C25   36  -1.625   0.844  -1.684
    1LIG    C26   37  -1.584   0.986  -1.645
    1LIG     N4   38  -1.646   1.004  -1.517
    1LIG    C27   39  -1.743   0.908  -1.494
    1LIG     H5   40  -1.609   1.056  -1.439
    1LIG     O3   41  -1.808   0.904  -1.391
    1LIG    HC2   42  -1.447   0.176  -1.708
    1LIG    HC3   43  -1.440   0.207  -1.534
    1LIG     HC   44  -1.452   0.460  -1.614
    1LIG    HC1   45  -1.212   0.497  -1.614
    1LIG    HC4   46  -1.083   0.532  -1.182
    1LIG    HC5   47  -1.044   0.369  -1.241
    1LIG    HC6   48  -1.204   0.402  -1.171
    1LIG    HC7   49  -1.188   0.253  -1.748
    1LIG    HC8   50  -1.054   0.356  -1.693
    1LIG    HC9   51  -0.928   0.301  -1.493
    1LIG   HC10   52  -0.933  -0.115  -1.395
    1LIG   HC11   53  -1.266   0.058  -1.601
    1LIG   HC12   54  -1.579   0.422  -1.405
    1LIG   HC13   55  -1.597   0.253  -1.354
    1LIG   HC14   56  -1.681   0.404  -1.179
    1LIG   HC15   57  -1.791   0.481  -1.296
    1LIG   HC16   58  -1.919   0.325  -1.164
    1LIG   HC17   59  -1.801   0.196  -1.191
    1LIG   HC18   60  -1.987   0.153  -1.334
    1LIG   HC19   61  -1.991   0.320  -1.392
    1LIG   HC20   62  -1.893   0.178  -1.565
    1LIG   HC21   63  -1.777   0.110  -1.450
    1LIG   HC22   64  -1.645   0.579  -1.520
    1LIG   HC23   65  -1.998   0.775  -1.663
    1LIG   HC24   66  -2.109   0.555  -1.680
    1LIG   HC25   67  -1.988   0.347  -1.627
    1LIG   HC26   68  -1.651   0.839  -1.789
    1LIG   HC27   69  -1.544   0.774  -1.661
    1LIG   HC28   70  -1.476   0.995  -1.637
    1LIG   HC29   71  -1.623   1.058  -1.716
   0.00000   0.00000   0.00000
