GROtesk MACabre and Sinister
   82
    1LIG     C1    1  -1.429   0.604  -1.756
    1LIG     C2    2  -1.436   0.761  -1.743
    1LIG     C3    3  -1.562   0.827  -1.684
    1LIG     C4    4  -1.540   0.881  -1.543
    1LIG     C5    5  -1.611   0.941  -1.773
    1LIG     C6    6  -1.293   0.551  -1.816
    1LIG     O1    7  -1.258   0.638  -1.925
    1LIG     H1    8  -1.321   0.623  -1.997
    1LIG     C7    9  -1.163   0.546  -1.724
    1LIG     C8   10  -1.095   0.410  -1.694
    1LIG     C9   11  -0.979   0.431  -1.597
    1LIG    C10   12  -1.181   0.289  -1.635
    1LIG     O2   13  -1.197   0.278  -1.513
    1LIG     N1   14  -1.224   0.188  -1.719
    1LIG     H2   15  -1.185   0.191  -1.812
    1LIG    C11   16  -1.256   0.052  -1.671
    1LIG    C12   17  -1.148  -0.058  -1.650
    1LIG    C13   18  -1.006  -0.016  -1.611
    1LIG    C14   19  -0.913   0.004  -1.729
    1LIG     N2   20  -1.445   0.546  -1.620
    1LIG    C15   21  -1.498   0.421  -1.596
    1LIG     O3   22  -1.527   0.340  -1.683
    1LIG     H3   23  -1.444   0.613  -1.546
    1LIG    C16   24  -1.528   0.395  -1.446
    1LIG     N3   25  -1.568   0.519  -1.383
    1LIG    C17   26  -1.571   0.563  -1.255
    1LIG     O4   27  -1.637   0.667  -1.237
    1LIG     H4   28  -1.623   0.581  -1.442
    1LIG    C18   29  -1.513   0.494  -1.131
    1LIG    C19   30  -1.585   0.447  -1.004
    1LIG    C20   31  -1.661   0.312  -1.006
    1LIG    C21   32  -1.659   0.249  -0.865
    1LIG    C22   33  -1.806   0.325  -1.051
    1LIG    C23   34  -1.640   0.289  -1.438
    1LIG    C24   35  -1.780   0.352  -1.428
    1LIG      S   36  -1.882   0.331  -1.577
    1LIG    C25   37  -2.017   0.444  -1.536
    1LIG     H5   38  -1.507   0.574  -1.823
    1LIG     H6   39  -1.424   0.801  -1.842
    1LIG     H7   40  -1.360   0.784  -1.672
    1LIG     H8   41  -1.636   0.750  -1.678
    1LIG     H9   42  -1.466   0.958  -1.546
    1LIG    H10   43  -1.506   0.801  -1.479
    1LIG    H11   44  -1.631   0.920  -1.505
    1LIG    H12   45  -1.536   1.018  -1.777
    1LIG    H13   46  -1.702   0.982  -1.732
    1LIG    H14   47  -1.630   0.904  -1.872
    1LIG    H15   48  -1.315   0.448  -1.837
    1LIG    H16   49  -1.190   0.589  -1.630
    1LIG    H17   50  -1.090   0.598  -1.783
    1LIG    H18   51  -1.069   0.378  -1.793
    1LIG    H19   52  -1.017   0.462  -1.502
    1LIG    H20   53  -0.913   0.506  -1.635
    1LIG    H21   54  -0.925   0.339  -1.585
    1LIG    H22   55  -1.326   0.012  -1.741
    1LIG    H23   56  -1.286   0.072  -1.571
    1LIG    H24   57  -1.141  -0.112  -1.742
    1LIG    H25   58  -1.183  -0.112  -1.565
    1LIG    H26   59  -1.012   0.077  -1.557
    1LIG    H27   60  -0.966  -0.095  -1.552
    1LIG    H28   61  -0.949   0.083  -1.791
    1LIG    H29   62  -0.908  -0.087  -1.786
    1LIG    H30   63  -0.815   0.029  -1.693
    1LIG    H31   64  -1.441   0.358  -1.394
    1LIG    H32   65  -1.439   0.562  -1.095
    1LIG    H33   66  -1.495   0.398  -1.174
    1LIG    H34   67  -1.656   0.522  -0.978
    1LIG    H35   68  -1.505   0.429  -0.935
    1LIG    H36   69  -1.610   0.250  -1.077
    1LIG    H37   70  -1.711   0.313  -0.797
    1LIG    H38   71  -1.558   0.236  -0.833
    1LIG    H39   72  -1.708   0.154  -0.868
    1LIG    H40   73  -1.860   0.386  -0.982
    1LIG    H41   74  -1.850   0.227  -1.055
    1LIG    H42   75  -1.809   0.369  -1.148
    1LIG    H43   76  -1.624   0.228  -1.352
    1LIG    H44   77  -1.637   0.232  -1.528
    1LIG    H45   78  -1.831   0.308  -1.345
    1LIG    H46   79  -1.765   0.458  -1.415
    1LIG    H47   80  -2.089   0.444  -1.615
    1LIG    H48   81  -1.978   0.543  -1.523
    1LIG    H49   82  -2.064   0.412  -1.445
   0.00000   0.00000   0.00000
