; Created by cgenff_charmm2gmx.py

[ moleculetype ]
; Name			   nrexcl
LIG				 3

[ atoms ]
;	 nr		  type	resnr residue  atom   cgnr	   charge		mass  typeB    chargeB		massB
; residue	 1 LIG rtp LIG q	qsum
     1      CG311      1    LIG     C1      1     -0.042     12.011   ;
     2      CG321      1    LIG     C2      2     -0.101     12.011   ;
     3      CG311      1    LIG     C3      3     -0.109     12.011   ;
     4      CG331      1    LIG     C4      4     -0.268     12.011   ;
     5      CG331      1    LIG     C5      5     -0.268     12.011   ;
     6      CG311      1    LIG     C6      6      0.119     12.011   ;
     7      OG311      1    LIG     O1      7     -0.648     15.999   ;
     8       HGP1      1    LIG     H1      8      0.421      1.008   ;
     9      CG321      1    LIG     C7      9     -0.187     12.011   ;
    10      CG311      1    LIG     C8     10     -0.033     12.011   ;
    11      CG331      1    LIG     C9     11     -0.266     12.011   ;
    12      CG2O1      1    LIG    C10     12      0.492     12.011   ;
    13      OG2D1      1    LIG     O2     13     -0.514     15.999   ;
    14      NG2S1      1    LIG     N1     14     -0.457     14.007   ;
    15       HGP1      1    LIG     H2     15      0.305      1.008   ;
    16      CG321      1    LIG    C11     16     -0.033     12.011   ;
    17      CG321      1    LIG    C12     17     -0.184     12.011   ;
    18      CG321      1    LIG    C13     18     -0.178     12.011   ;
    19      CG331      1    LIG    C14     19     -0.270     12.011   ;
    20      NG2S1      1    LIG     N2     20     -0.401     14.007   ;
    21      CG2O1      1    LIG    C15     21      0.494     12.011   ;
    22      OG2D1      1    LIG     O3     22     -0.509     15.999   ;
    23       HGP1      1    LIG     H3     23      0.269      1.008   ;
    24      CG311      1    LIG    C16     24      0.063     12.011   ;
    25      NG2S1      1    LIG     N3     25     -0.449     14.007   ;
    26      CG2O1      1    LIG    C17     26      0.519     12.011   ;
    27      OG2D1      1    LIG     O4     27     -0.517     15.999   ;
    28       HGP1      1    LIG     H4     28      0.328      1.008   ;
    29      CG321      1    LIG    C18     29     -0.194     12.011   ;
    30      CG321      1    LIG    C19     30     -0.141     12.011   ;
    31      CG311      1    LIG    C20     31     -0.103     12.011   ;
    32      CG331      1    LIG    C21     32     -0.273     12.011   ;
    33      CG331      1    LIG    C22     33     -0.273     12.011   ;
    34      CG321      1    LIG    C23     34     -0.182     12.011   ;
    35      CG321      1    LIG    C24     35     -0.135     12.011   ;
    36      SG311      1    LIG      S     36     -0.105     32.060   ;
    37      CG331      1    LIG    C25     37     -0.220     12.011   ;
    38       HGA1      1    LIG     H5     38      0.090      1.008   ;
    39       HGA2      1    LIG     H6     39      0.090      1.008   ;
    40       HGA2      1    LIG     H7     40      0.090      1.008   ;
    41       HGA1      1    LIG     H8     41      0.090      1.008   ;
    42       HGA3      1    LIG     H9     42      0.090      1.008   ;
    43       HGA3      1    LIG    H10     43      0.090      1.008   ;
    44       HGA3      1    LIG    H11     44      0.090      1.008   ;
    45       HGA3      1    LIG    H12     45      0.090      1.008   ;
    46       HGA3      1    LIG    H13     46      0.090      1.008   ;
    47       HGA3      1    LIG    H14     47      0.090      1.008   ;
    48       HGA1      1    LIG    H15     48      0.090      1.008   ;
    49       HGA2      1    LIG    H16     49      0.090      1.008   ;
    50       HGA2      1    LIG    H17     50      0.090      1.008   ;
    51       HGA1      1    LIG    H18     51      0.090      1.008   ;
    52       HGA3      1    LIG    H19     52      0.090      1.008   ;
    53       HGA3      1    LIG    H20     53      0.090      1.008   ;
    54       HGA3      1    LIG    H21     54      0.090      1.008   ;
    55       HGA2      1    LIG    H22     55      0.090      1.008   ;
    56       HGA2      1    LIG    H23     56      0.090      1.008   ;
    57       HGA2      1    LIG    H24     57      0.090      1.008   ;
    58       HGA2      1    LIG    H25     58      0.090      1.008   ;
    59       HGA2      1    LIG    H26     59      0.090      1.008   ;
    60       HGA2      1    LIG    H27     60      0.090      1.008   ;
    61       HGA3      1    LIG    H28     61      0.090      1.008   ;
    62       HGA3      1    LIG    H29     62      0.090      1.008   ;
    63       HGA3      1    LIG    H30     63      0.090      1.008   ;
    64       HGA1      1    LIG    H31     64      0.090      1.008   ;
    65       HGA2      1    LIG    H32     65      0.090      1.008   ;
    66       HGA2      1    LIG    H33     66      0.090      1.008   ;
    67       HGA2      1    LIG    H34     67      0.090      1.008   ;
    68       HGA2      1    LIG    H35     68      0.090      1.008   ;
    69       HGA1      1    LIG    H36     69      0.090      1.008   ;
    70       HGA3      1    LIG    H37     70      0.090      1.008   ;
    71       HGA3      1    LIG    H38     71      0.090      1.008   ;
    72       HGA3      1    LIG    H39     72      0.090      1.008   ;
    73       HGA3      1    LIG    H40     73      0.090      1.008   ;
    74       HGA3      1    LIG    H41     74      0.090      1.008   ;
    75       HGA3      1    LIG    H42     75      0.090      1.008   ;
    76       HGA2      1    LIG    H43     76      0.090      1.008   ;
    77       HGA2      1    LIG    H44     77      0.090      1.008   ;
    78       HGA2      1    LIG    H45     78      0.090      1.008   ;
    79       HGA2      1    LIG    H46     79      0.090      1.008   ;
    80       HGA3      1    LIG    H47     80      0.090      1.008   ;
    81       HGA3      1    LIG    H48     81      0.090      1.008   ;
    82       HGA3      1    LIG    H49     82      0.090      1.008   ;

[ bonds ]
;	ai	  aj funct			  c0			c1			  c2			c3
    1     6	 1 ;       CG311      CG311
    1     2	 1 ;       CG311      CG321
    1    20	 1 ;       CG311      NG2S1
    1    38	 1 ;       CG311       HGA1
    2     3	 1 ;       CG321      CG311
    2    39	 1 ;       CG321       HGA2
    2    40	 1 ;       CG321       HGA2
    3     5	 1 ;       CG311      CG331
    3     4	 1 ;       CG311      CG331
    3    41	 1 ;       CG311       HGA1
    4    42	 1 ;       CG331       HGA3
    4    43	 1 ;       CG331       HGA3
    4    44	 1 ;       CG331       HGA3
    5    45	 1 ;       CG331       HGA3
    5    46	 1 ;       CG331       HGA3
    5    47	 1 ;       CG331       HGA3
    6     7	 1 ;       CG311      OG311
    6     9	 1 ;       CG311      CG321
    6    48	 1 ;       CG311       HGA1
    7     8	 1 ;       OG311       HGP1
    9    10	 1 ;       CG321      CG311
    9    49	 1 ;       CG321       HGA2
    9    50	 1 ;       CG321       HGA2
   10    12	 1 ;       CG311      CG2O1
   10    11	 1 ;       CG311      CG331
   10    51	 1 ;       CG311       HGA1
   11    52	 1 ;       CG331       HGA3
   11    53	 1 ;       CG331       HGA3
   11    54	 1 ;       CG331       HGA3
   12    14	 1 ;       CG2O1      NG2S1
   12    13	 1 ;       CG2O1      OG2D1
   14    15	 1 ;       NG2S1       HGP1
   14    16	 1 ;       NG2S1      CG321
   16    17	 1 ;       CG321      CG321
   16    55	 1 ;       CG321       HGA2
   16    56	 1 ;       CG321       HGA2
   17    18	 1 ;       CG321      CG321
   17    57	 1 ;       CG321       HGA2
   17    58	 1 ;       CG321       HGA2
   18    19	 1 ;       CG321      CG331
   18    59	 1 ;       CG321       HGA2
   18    60	 1 ;       CG321       HGA2
   19    61	 1 ;       CG331       HGA3
   19    62	 1 ;       CG331       HGA3
   19    63	 1 ;       CG331       HGA3
   20    21	 1 ;       NG2S1      CG2O1
   20    23	 1 ;       NG2S1       HGP1
   21    22	 1 ;       CG2O1      OG2D1
   21    24	 1 ;       CG2O1      CG311
   24    34	 1 ;       CG311      CG321
   24    25	 1 ;       CG311      NG2S1
   24    64	 1 ;       CG311       HGA1
   25    28	 1 ;       NG2S1       HGP1
   25    26	 1 ;       NG2S1      CG2O1
   26    27	 1 ;       CG2O1      OG2D1
   26    29	 1 ;       CG2O1      CG321
   29    30	 1 ;       CG321      CG321
   29    65	 1 ;       CG321       HGA2
   29    66	 1 ;       CG321       HGA2
   30    31	 1 ;       CG321      CG311
   30    67	 1 ;       CG321       HGA2
   30    68	 1 ;       CG321       HGA2
   31    33	 1 ;       CG311      CG331
   31    32	 1 ;       CG311      CG331
   31    69	 1 ;       CG311       HGA1
   32    70	 1 ;       CG331       HGA3
   32    71	 1 ;       CG331       HGA3
   32    72	 1 ;       CG331       HGA3
   33    73	 1 ;       CG331       HGA3
   33    74	 1 ;       CG331       HGA3
   33    75	 1 ;       CG331       HGA3
   34    35	 1 ;       CG321      CG321
   34    76	 1 ;       CG321       HGA2
   34    77	 1 ;       CG321       HGA2
   35    36	 1 ;       CG321      SG311
   35    78	 1 ;       CG321       HGA2
   35    79	 1 ;       CG321       HGA2
   36    37	 1 ;       SG311      CG331
   37    80	 1 ;       CG331       HGA3
   37    81	 1 ;       CG331       HGA3
   37    82	 1 ;       CG331       HGA3

[ pairs ]
;	ai	  aj funct			  c0			c1			  c2			c3
    1     5	 1
    1     4	 1
    1    41	 1
    1     8	 1
    1    10	 1
    1    49	 1
    1    50	 1
    1    22	 1
    1    24	 1
    2     7	 1
    2     9	 1
    2    48	 1
    2    21	 1
    2    23	 1
    2    45	 1
    2    46	 1
    2    47	 1
    2    42	 1
    2    43	 1
    2    44	 1
    3     6	 1
    3    20	 1
    3    38	 1
    4    39	 1
    4    40	 1
    4    45	 1
    4    46	 1
    4    47	 1
    5    39	 1
    5    40	 1
    5    42	 1
    5    43	 1
    5    44	 1
    6    39	 1
    6    40	 1
    6    21	 1
    6    23	 1
    6    12	 1
    6    11	 1
    6    51	 1
    7    20	 1
    7    38	 1
    7    10	 1
    7    49	 1
    7    50	 1
    8     9	 1
    8    48	 1
    9    20	 1
    9    38	 1
    9    14	 1
    9    13	 1
    9    52	 1
    9    53	 1
    9    54	 1
   10    48	 1
   10    15	 1
   10    16	 1
   11    49	 1
   11    50	 1
   11    14	 1
   11    13	 1
   12    49	 1
   12    50	 1
   12    52	 1
   12    53	 1
   12    54	 1
   12    17	 1
   12    55	 1
   12    56	 1
   13    51	 1
   13    15	 1
   13    16	 1
   14    51	 1
   14    18	 1
   14    57	 1
   14    58	 1
   15    17	 1
   15    55	 1
   15    56	 1
   16    19	 1
   16    59	 1
   16    60	 1
   17    61	 1
   17    62	 1
   17    63	 1
   18    55	 1
   18    56	 1
   19    57	 1
   19    58	 1
   20    48	 1
   20    39	 1
   20    40	 1
   20    34	 1
   20    25	 1
   20    64	 1
   21    38	 1
   21    35	 1
   21    76	 1
   21    77	 1
   21    28	 1
   21    26	 1
   22    23	 1
   22    34	 1
   22    25	 1
   22    64	 1
   23    38	 1
   23    24	 1
   24    27	 1
   24    29	 1
   24    36	 1
   24    78	 1
   24    79	 1
   25    35	 1
   25    76	 1
   25    77	 1
   25    30	 1
   25    65	 1
   25    66	 1
   26    34	 1
   26    64	 1
   26    31	 1
   26    67	 1
   26    68	 1
   27    28	 1
   27    30	 1
   27    65	 1
   27    66	 1
   28    34	 1
   28    64	 1
   28    29	 1
   29    33	 1
   29    32	 1
   29    69	 1
   30    73	 1
   30    74	 1
   30    75	 1
   30    70	 1
   30    71	 1
   30    72	 1
   31    65	 1
   31    66	 1
   32    67	 1
   32    68	 1
   32    73	 1
   32    74	 1
   32    75	 1
   33    67	 1
   33    68	 1
   33    70	 1
   33    71	 1
   33    72	 1
   34    37	 1
   35    64	 1
   35    80	 1
   35    81	 1
   35    82	 1
   36    76	 1
   36    77	 1
   37    78	 1
   37    79	 1
   38    48	 1
   38    39	 1
   38    40	 1
   39    41	 1
   40    41	 1
   41    45	 1
   41    46	 1
   41    47	 1
   41    42	 1
   41    43	 1
   41    44	 1
   48    49	 1
   48    50	 1
   49    51	 1
   50    51	 1
   51    52	 1
   51    53	 1
   51    54	 1
   55    57	 1
   55    58	 1
   56    57	 1
   56    58	 1
   57    59	 1
   57    60	 1
   58    59	 1
   58    60	 1
   59    61	 1
   59    62	 1
   59    63	 1
   60    61	 1
   60    62	 1
   60    63	 1
   64    76	 1
   64    77	 1
   65    67	 1
   65    68	 1
   66    67	 1
   66    68	 1
   67    69	 1
   68    69	 1
   69    73	 1
   69    74	 1
   69    75	 1
   69    70	 1
   69    71	 1
   69    72	 1
   76    78	 1
   76    79	 1
   77    78	 1
   77    79	 1

[ angles ]
;	ai	  aj	ak funct			c0			  c1			c2			  c3
    6     1     2	5 ;      CG311      CG311      CG321
    6     1    20	5 ;      CG311      CG311      NG2S1
    6     1    38	5 ;      CG311      CG311       HGA1
    2     1    20	5 ;      CG321      CG311      NG2S1
    2     1    38	5 ;      CG321      CG311       HGA1
   20     1    38	5 ;      NG2S1      CG311       HGA1
    1     2     3	5 ;      CG311      CG321      CG311
    1     2    39	5 ;      CG311      CG321       HGA2
    1     2    40	5 ;      CG311      CG321       HGA2
    3     2    39	5 ;      CG311      CG321       HGA2
    3     2    40	5 ;      CG311      CG321       HGA2
   39     2    40	5 ;       HGA2      CG321       HGA2
    5     3     2	5 ;      CG331      CG311      CG321
    5     3     4	5 ;      CG331      CG311      CG331
    5     3    41	5 ;      CG331      CG311       HGA1
    2     3     4	5 ;      CG321      CG311      CG331
    2     3    41	5 ;      CG321      CG311       HGA1
    4     3    41	5 ;      CG331      CG311       HGA1
    3     4    42	5 ;      CG311      CG331       HGA3
    3     4    43	5 ;      CG311      CG331       HGA3
    3     4    44	5 ;      CG311      CG331       HGA3
   42     4    43	5 ;       HGA3      CG331       HGA3
   42     4    44	5 ;       HGA3      CG331       HGA3
   43     4    44	5 ;       HGA3      CG331       HGA3
    3     5    45	5 ;      CG311      CG331       HGA3
    3     5    46	5 ;      CG311      CG331       HGA3
    3     5    47	5 ;      CG311      CG331       HGA3
   45     5    46	5 ;       HGA3      CG331       HGA3
   45     5    47	5 ;       HGA3      CG331       HGA3
   46     5    47	5 ;       HGA3      CG331       HGA3
    7     6     1	5 ;      OG311      CG311      CG311
    7     6     9	5 ;      OG311      CG311      CG321
    7     6    48	5 ;      OG311      CG311       HGA1
    1     6     9	5 ;      CG311      CG311      CG321
    1     6    48	5 ;      CG311      CG311       HGA1
    9     6    48	5 ;      CG321      CG311       HGA1
    8     7     6	5 ;       HGP1      OG311      CG311
    6     9    10	5 ;      CG311      CG321      CG311
    6     9    49	5 ;      CG311      CG321       HGA2
    6     9    50	5 ;      CG311      CG321       HGA2
   10     9    49	5 ;      CG311      CG321       HGA2
   10     9    50	5 ;      CG311      CG321       HGA2
   49     9    50	5 ;       HGA2      CG321       HGA2
    9    10    12	5 ;      CG321      CG311      CG2O1
    9    10    11	5 ;      CG321      CG311      CG331
    9    10    51	5 ;      CG321      CG311       HGA1
   12    10    11	5 ;      CG2O1      CG311      CG331
   12    10    51	5 ;      CG2O1      CG311       HGA1
   11    10    51	5 ;      CG331      CG311       HGA1
   10    11    52	5 ;      CG311      CG331       HGA3
   10    11    53	5 ;      CG311      CG331       HGA3
   10    11    54	5 ;      CG311      CG331       HGA3
   52    11    53	5 ;       HGA3      CG331       HGA3
   52    11    54	5 ;       HGA3      CG331       HGA3
   53    11    54	5 ;       HGA3      CG331       HGA3
   14    12    10	5 ;      NG2S1      CG2O1      CG311
   14    12    13	5 ;      NG2S1      CG2O1      OG2D1
   10    12    13	5 ;      CG311      CG2O1      OG2D1
   15    14    16	5 ;       HGP1      NG2S1      CG321
   15    14    12	5 ;       HGP1      NG2S1      CG2O1
   16    14    12	5 ;      CG321      NG2S1      CG2O1
   14    16    17	5 ;      NG2S1      CG321      CG321
   14    16    55	5 ;      NG2S1      CG321       HGA2
   14    16    56	5 ;      NG2S1      CG321       HGA2
   17    16    55	5 ;      CG321      CG321       HGA2
   17    16    56	5 ;      CG321      CG321       HGA2
   55    16    56	5 ;       HGA2      CG321       HGA2
   16    17    18	5 ;      CG321      CG321      CG321
   16    17    57	5 ;      CG321      CG321       HGA2
   16    17    58	5 ;      CG321      CG321       HGA2
   18    17    57	5 ;      CG321      CG321       HGA2
   18    17    58	5 ;      CG321      CG321       HGA2
   57    17    58	5 ;       HGA2      CG321       HGA2
   19    18    17	5 ;      CG331      CG321      CG321
   19    18    59	5 ;      CG331      CG321       HGA2
   19    18    60	5 ;      CG331      CG321       HGA2
   17    18    59	5 ;      CG321      CG321       HGA2
   17    18    60	5 ;      CG321      CG321       HGA2
   59    18    60	5 ;       HGA2      CG321       HGA2
   18    19    61	5 ;      CG321      CG331       HGA3
   18    19    62	5 ;      CG321      CG331       HGA3
   18    19    63	5 ;      CG321      CG331       HGA3
   61    19    62	5 ;       HGA3      CG331       HGA3
   61    19    63	5 ;       HGA3      CG331       HGA3
   62    19    63	5 ;       HGA3      CG331       HGA3
    1    20    21	5 ;      CG311      NG2S1      CG2O1
    1    20    23	5 ;      CG311      NG2S1       HGP1
   21    20    23	5 ;      CG2O1      NG2S1       HGP1
   22    21    20	5 ;      OG2D1      CG2O1      NG2S1
   22    21    24	5 ;      OG2D1      CG2O1      CG311
   20    21    24	5 ;      NG2S1      CG2O1      CG311
   21    24    34	5 ;      CG2O1      CG311      CG321
   21    24    25	5 ;      CG2O1      CG311      NG2S1
   21    24    64	5 ;      CG2O1      CG311       HGA1
   34    24    25	5 ;      CG321      CG311      NG2S1
   34    24    64	5 ;      CG321      CG311       HGA1
   25    24    64	5 ;      NG2S1      CG311       HGA1
   24    25    28	5 ;      CG311      NG2S1       HGP1
   24    25    26	5 ;      CG311      NG2S1      CG2O1
   28    25    26	5 ;       HGP1      NG2S1      CG2O1
   25    26    27	5 ;      NG2S1      CG2O1      OG2D1
   25    26    29	5 ;      NG2S1      CG2O1      CG321
   27    26    29	5 ;      OG2D1      CG2O1      CG321
   26    29    30	5 ;      CG2O1      CG321      CG321
   26    29    65	5 ;      CG2O1      CG321       HGA2
   26    29    66	5 ;      CG2O1      CG321       HGA2
   30    29    65	5 ;      CG321      CG321       HGA2
   30    29    66	5 ;      CG321      CG321       HGA2
   65    29    66	5 ;       HGA2      CG321       HGA2
   29    30    31	5 ;      CG321      CG321      CG311
   29    30    67	5 ;      CG321      CG321       HGA2
   29    30    68	5 ;      CG321      CG321       HGA2
   31    30    67	5 ;      CG311      CG321       HGA2
   31    30    68	5 ;      CG311      CG321       HGA2
   67    30    68	5 ;       HGA2      CG321       HGA2
   33    31    30	5 ;      CG331      CG311      CG321
   33    31    32	5 ;      CG331      CG311      CG331
   33    31    69	5 ;      CG331      CG311       HGA1
   30    31    32	5 ;      CG321      CG311      CG331
   30    31    69	5 ;      CG321      CG311       HGA1
   32    31    69	5 ;      CG331      CG311       HGA1
   31    32    70	5 ;      CG311      CG331       HGA3
   31    32    71	5 ;      CG311      CG331       HGA3
   31    32    72	5 ;      CG311      CG331       HGA3
   70    32    71	5 ;       HGA3      CG331       HGA3
   70    32    72	5 ;       HGA3      CG331       HGA3
   71    32    72	5 ;       HGA3      CG331       HGA3
   31    33    73	5 ;      CG311      CG331       HGA3
   31    33    74	5 ;      CG311      CG331       HGA3
   31    33    75	5 ;      CG311      CG331       HGA3
   73    33    74	5 ;       HGA3      CG331       HGA3
   73    33    75	5 ;       HGA3      CG331       HGA3
   74    33    75	5 ;       HGA3      CG331       HGA3
   24    34    35	5 ;      CG311      CG321      CG321
   24    34    76	5 ;      CG311      CG321       HGA2
   24    34    77	5 ;      CG311      CG321       HGA2
   35    34    76	5 ;      CG321      CG321       HGA2
   35    34    77	5 ;      CG321      CG321       HGA2
   76    34    77	5 ;       HGA2      CG321       HGA2
   36    35    34	5 ;      SG311      CG321      CG321
   36    35    78	5 ;      SG311      CG321       HGA2
   36    35    79	5 ;      SG311      CG321       HGA2
   34    35    78	5 ;      CG321      CG321       HGA2
   34    35    79	5 ;      CG321      CG321       HGA2
   78    35    79	5 ;       HGA2      CG321       HGA2
   37    36    35	5 ;      CG331      SG311      CG321
   36    37    80	5 ;      SG311      CG331       HGA3
   36    37    81	5 ;      SG311      CG331       HGA3
   36    37    82	5 ;      SG311      CG331       HGA3
   80    37    81	5 ;       HGA3      CG331       HGA3
   80    37    82	5 ;       HGA3      CG331       HGA3
   81    37    82	5 ;       HGA3      CG331       HGA3

[ dihedrals ]
;	ai	  aj	ak	  al funct			  c0			c1			  c2			c3			  c4			c5
    2     1     6     7	 9 ;      CG321      CG311      CG311      OG311
    2     1     6     9	 9 ;      CG321      CG311      CG311      CG321
    2     1     6    48	 9 ;      CG321      CG311      CG311       HGA1
   20     1     6     7	 9 ;      NG2S1      CG311      CG311      OG311
   20     1     6     9	 9 ;      NG2S1      CG311      CG311      CG321
   20     1     6    48	 9 ;      NG2S1      CG311      CG311       HGA1
   38     1     6     7	 9 ;       HGA1      CG311      CG311      OG311
   38     1     6     9	 9 ;       HGA1      CG311      CG311      CG321
   38     1     6    48	 9 ;       HGA1      CG311      CG311       HGA1
    6     1     2     3	 9 ;      CG311      CG311      CG321      CG311
    6     1     2    39	 9 ;      CG311      CG311      CG321       HGA2
    6     1     2    40	 9 ;      CG311      CG311      CG321       HGA2
   20     1     2     3	 9 ;      NG2S1      CG311      CG321      CG311
   20     1     2    39	 9 ;      NG2S1      CG311      CG321       HGA2
   20     1     2    40	 9 ;      NG2S1      CG311      CG321       HGA2
   38     1     2     3	 9 ;       HGA1      CG311      CG321      CG311
   38     1     2    39	 9 ;       HGA1      CG311      CG321       HGA2
   38     1     2    40	 9 ;       HGA1      CG311      CG321       HGA2
    6     1    20    21	 9 ;      CG311      CG311      NG2S1      CG2O1
    6     1    20    23	 9 ;      CG311      CG311      NG2S1       HGP1
    2     1    20    21	 9 ;      CG321      CG311      NG2S1      CG2O1
    2     1    20    23	 9 ;      CG321      CG311      NG2S1       HGP1
   38     1    20    21	 9 ;       HGA1      CG311      NG2S1      CG2O1
   38     1    20    23	 9 ;       HGA1      CG311      NG2S1       HGP1
    1     2     3     5	 9 ;      CG311      CG321      CG311      CG331
    1     2     3     4	 9 ;      CG311      CG321      CG311      CG331
    1     2     3    41	 9 ;      CG311      CG321      CG311       HGA1
   39     2     3     5	 9 ;       HGA2      CG321      CG311      CG331
   39     2     3     4	 9 ;       HGA2      CG321      CG311      CG331
   39     2     3    41	 9 ;       HGA2      CG321      CG311       HGA1
   40     2     3     5	 9 ;       HGA2      CG321      CG311      CG331
   40     2     3     4	 9 ;       HGA2      CG321      CG311      CG331
   40     2     3    41	 9 ;       HGA2      CG321      CG311       HGA1
    2     3     5    45	 9 ;      CG321      CG311      CG331       HGA3
    2     3     5    46	 9 ;      CG321      CG311      CG331       HGA3
    2     3     5    47	 9 ;      CG321      CG311      CG331       HGA3
    4     3     5    45	 9 ;      CG331      CG311      CG331       HGA3
    4     3     5    46	 9 ;      CG331      CG311      CG331       HGA3
    4     3     5    47	 9 ;      CG331      CG311      CG331       HGA3
   41     3     5    45	 9 ;       HGA1      CG311      CG331       HGA3
   41     3     5    46	 9 ;       HGA1      CG311      CG331       HGA3
   41     3     5    47	 9 ;       HGA1      CG311      CG331       HGA3
    5     3     4    42	 9 ;      CG331      CG311      CG331       HGA3
    5     3     4    43	 9 ;      CG331      CG311      CG331       HGA3
    5     3     4    44	 9 ;      CG331      CG311      CG331       HGA3
    2     3     4    42	 9 ;      CG321      CG311      CG331       HGA3
    2     3     4    43	 9 ;      CG321      CG311      CG331       HGA3
    2     3     4    44	 9 ;      CG321      CG311      CG331       HGA3
   41     3     4    42	 9 ;       HGA1      CG311      CG331       HGA3
   41     3     4    43	 9 ;       HGA1      CG311      CG331       HGA3
   41     3     4    44	 9 ;       HGA1      CG311      CG331       HGA3
    1     6     7     8	 9 ;      CG311      CG311      OG311       HGP1
    9     6     7     8	 9 ;      CG321      CG311      OG311       HGP1
   48     6     7     8	 9 ;       HGA1      CG311      OG311       HGP1
    7     6     9    10	 9 ;      OG311      CG311      CG321      CG311
    7     6     9    49	 9 ;      OG311      CG311      CG321       HGA2
    7     6     9    50	 9 ;      OG311      CG311      CG321       HGA2
    1     6     9    10	 9 ;      CG311      CG311      CG321      CG311
    1     6     9    49	 9 ;      CG311      CG311      CG321       HGA2
    1     6     9    50	 9 ;      CG311      CG311      CG321       HGA2
   48     6     9    10	 9 ;       HGA1      CG311      CG321      CG311
   48     6     9    49	 9 ;       HGA1      CG311      CG321       HGA2
   48     6     9    50	 9 ;       HGA1      CG311      CG321       HGA2
    6     9    10    12	 9 ;      CG311      CG321      CG311      CG2O1
    6     9    10    11	 9 ;      CG311      CG321      CG311      CG331
    6     9    10    51	 9 ;      CG311      CG321      CG311       HGA1
   49     9    10    12	 9 ;       HGA2      CG321      CG311      CG2O1
   49     9    10    11	 9 ;       HGA2      CG321      CG311      CG331
   49     9    10    51	 9 ;       HGA2      CG321      CG311       HGA1
   50     9    10    12	 9 ;       HGA2      CG321      CG311      CG2O1
   50     9    10    11	 9 ;       HGA2      CG321      CG311      CG331
   50     9    10    51	 9 ;       HGA2      CG321      CG311       HGA1
    9    10    12    14	 9 ;      CG321      CG311      CG2O1      NG2S1
    9    10    12    13	 9 ;      CG321      CG311      CG2O1      OG2D1
   11    10    12    14	 9 ;      CG331      CG311      CG2O1      NG2S1
   11    10    12    13	 9 ;      CG331      CG311      CG2O1      OG2D1
   51    10    12    14	 9 ;       HGA1      CG311      CG2O1      NG2S1
   51    10    12    13	 9 ;       HGA1      CG311      CG2O1      OG2D1
    9    10    11    52	 9 ;      CG321      CG311      CG331       HGA3
    9    10    11    53	 9 ;      CG321      CG311      CG331       HGA3
    9    10    11    54	 9 ;      CG321      CG311      CG331       HGA3
   12    10    11    52	 9 ;      CG2O1      CG311      CG331       HGA3
   12    10    11    53	 9 ;      CG2O1      CG311      CG331       HGA3
   12    10    11    54	 9 ;      CG2O1      CG311      CG331       HGA3
   51    10    11    52	 9 ;       HGA1      CG311      CG331       HGA3
   51    10    11    53	 9 ;       HGA1      CG311      CG331       HGA3
   51    10    11    54	 9 ;       HGA1      CG311      CG331       HGA3
   10    12    14    15	 9 ;      CG311      CG2O1      NG2S1       HGP1
   10    12    14    16	 9 ;      CG311      CG2O1      NG2S1      CG321
   13    12    14    15	 9 ;      OG2D1      CG2O1      NG2S1       HGP1
   13    12    14    16	 9 ;      OG2D1      CG2O1      NG2S1      CG321
   15    14    16    17	 9 ;       HGP1      NG2S1      CG321      CG321
   15    14    16    55	 9 ;       HGP1      NG2S1      CG321       HGA2
   15    14    16    56	 9 ;       HGP1      NG2S1      CG321       HGA2
   12    14    16    17	 9 ;      CG2O1      NG2S1      CG321      CG321
   12    14    16    55	 9 ;      CG2O1      NG2S1      CG321       HGA2
   12    14    16    56	 9 ;      CG2O1      NG2S1      CG321       HGA2
   14    16    17    18	 9 ;      NG2S1      CG321      CG321      CG321
   14    16    17    57	 9 ;      NG2S1      CG321      CG321       HGA2
   14    16    17    58	 9 ;      NG2S1      CG321      CG321       HGA2
   55    16    17    18	 9 ;       HGA2      CG321      CG321      CG321
   55    16    17    57	 9 ;       HGA2      CG321      CG321       HGA2
   55    16    17    58	 9 ;       HGA2      CG321      CG321       HGA2
   56    16    17    18	 9 ;       HGA2      CG321      CG321      CG321
   56    16    17    57	 9 ;       HGA2      CG321      CG321       HGA2
   56    16    17    58	 9 ;       HGA2      CG321      CG321       HGA2
   16    17    18    19	 9 ;      CG321      CG321      CG321      CG331
   16    17    18    59	 9 ;      CG321      CG321      CG321       HGA2
   16    17    18    60	 9 ;      CG321      CG321      CG321       HGA2
   57    17    18    19	 9 ;       HGA2      CG321      CG321      CG331
   57    17    18    59	 9 ;       HGA2      CG321      CG321       HGA2
   57    17    18    60	 9 ;       HGA2      CG321      CG321       HGA2
   58    17    18    19	 9 ;       HGA2      CG321      CG321      CG331
   58    17    18    59	 9 ;       HGA2      CG321      CG321       HGA2
   58    17    18    60	 9 ;       HGA2      CG321      CG321       HGA2
   17    18    19    61	 9 ;      CG321      CG321      CG331       HGA3
   17    18    19    62	 9 ;      CG321      CG321      CG331       HGA3
   17    18    19    63	 9 ;      CG321      CG321      CG331       HGA3
   59    18    19    61	 9 ;       HGA2      CG321      CG331       HGA3
   59    18    19    62	 9 ;       HGA2      CG321      CG331       HGA3
   59    18    19    63	 9 ;       HGA2      CG321      CG331       HGA3
   60    18    19    61	 9 ;       HGA2      CG321      CG331       HGA3
   60    18    19    62	 9 ;       HGA2      CG321      CG331       HGA3
   60    18    19    63	 9 ;       HGA2      CG321      CG331       HGA3
    1    20    21    22	 9 ;      CG311      NG2S1      CG2O1      OG2D1
    1    20    21    24	 9 ;      CG311      NG2S1      CG2O1      CG311
   23    20    21    22	 9 ;       HGP1      NG2S1      CG2O1      OG2D1
   23    20    21    24	 9 ;       HGP1      NG2S1      CG2O1      CG311
   22    21    24    34	 9 ;      OG2D1      CG2O1      CG311      CG321
   22    21    24    25	 9 ;      OG2D1      CG2O1      CG311      NG2S1
   22    21    24    64	 9 ;      OG2D1      CG2O1      CG311       HGA1
   20    21    24    34	 9 ;      NG2S1      CG2O1      CG311      CG321
   20    21    24    25	 9 ;      NG2S1      CG2O1      CG311      NG2S1
   20    21    24    64	 9 ;      NG2S1      CG2O1      CG311       HGA1
   21    24    34    35	 9 ;      CG2O1      CG311      CG321      CG321
   21    24    34    76	 9 ;      CG2O1      CG311      CG321       HGA2
   21    24    34    77	 9 ;      CG2O1      CG311      CG321       HGA2
   25    24    34    35	 9 ;      NG2S1      CG311      CG321      CG321
   25    24    34    76	 9 ;      NG2S1      CG311      CG321       HGA2
   25    24    34    77	 9 ;      NG2S1      CG311      CG321       HGA2
   64    24    34    35	 9 ;       HGA1      CG311      CG321      CG321
   64    24    34    76	 9 ;       HGA1      CG311      CG321       HGA2
   64    24    34    77	 9 ;       HGA1      CG311      CG321       HGA2
   21    24    25    28	 9 ;      CG2O1      CG311      NG2S1       HGP1
   21    24    25    26	 9 ;      CG2O1      CG311      NG2S1      CG2O1
   34    24    25    28	 9 ;      CG321      CG311      NG2S1       HGP1
   34    24    25    26	 9 ;      CG321      CG311      NG2S1      CG2O1
   64    24    25    28	 9 ;       HGA1      CG311      NG2S1       HGP1
   64    24    25    26	 9 ;       HGA1      CG311      NG2S1      CG2O1
   24    25    26    27	 9 ;      CG311      NG2S1      CG2O1      OG2D1
   24    25    26    29	 9 ;      CG311      NG2S1      CG2O1      CG321
   28    25    26    27	 9 ;       HGP1      NG2S1      CG2O1      OG2D1
   28    25    26    29	 9 ;       HGP1      NG2S1      CG2O1      CG321
   25    26    29    30	 9 ;      NG2S1      CG2O1      CG321      CG321
   25    26    29    65	 9 ;      NG2S1      CG2O1      CG321       HGA2
   25    26    29    66	 9 ;      NG2S1      CG2O1      CG321       HGA2
   27    26    29    30	 9 ;      OG2D1      CG2O1      CG321      CG321
   27    26    29    65	 9 ;      OG2D1      CG2O1      CG321       HGA2
   27    26    29    66	 9 ;      OG2D1      CG2O1      CG321       HGA2
   26    29    30    31	 9 ;      CG2O1      CG321      CG321      CG311
   26    29    30    67	 9 ;      CG2O1      CG321      CG321       HGA2
   26    29    30    68	 9 ;      CG2O1      CG321      CG321       HGA2
   65    29    30    31	 9 ;       HGA2      CG321      CG321      CG311
   65    29    30    67	 9 ;       HGA2      CG321      CG321       HGA2
   65    29    30    68	 9 ;       HGA2      CG321      CG321       HGA2
   66    29    30    31	 9 ;       HGA2      CG321      CG321      CG311
   66    29    30    67	 9 ;       HGA2      CG321      CG321       HGA2
   66    29    30    68	 9 ;       HGA2      CG321      CG321       HGA2
   29    30    31    33	 9 ;      CG321      CG321      CG311      CG331
   29    30    31    32	 9 ;      CG321      CG321      CG311      CG331
   29    30    31    69	 9 ;      CG321      CG321      CG311       HGA1
   67    30    31    33	 9 ;       HGA2      CG321      CG311      CG331
   67    30    31    32	 9 ;       HGA2      CG321      CG311      CG331
   67    30    31    69	 9 ;       HGA2      CG321      CG311       HGA1
   68    30    31    33	 9 ;       HGA2      CG321      CG311      CG331
   68    30    31    32	 9 ;       HGA2      CG321      CG311      CG331
   68    30    31    69	 9 ;       HGA2      CG321      CG311       HGA1
   30    31    33    73	 9 ;      CG321      CG311      CG331       HGA3
   30    31    33    74	 9 ;      CG321      CG311      CG331       HGA3
   30    31    33    75	 9 ;      CG321      CG311      CG331       HGA3
   32    31    33    73	 9 ;      CG331      CG311      CG331       HGA3
   32    31    33    74	 9 ;      CG331      CG311      CG331       HGA3
   32    31    33    75	 9 ;      CG331      CG311      CG331       HGA3
   69    31    33    73	 9 ;       HGA1      CG311      CG331       HGA3
   69    31    33    74	 9 ;       HGA1      CG311      CG331       HGA3
   69    31    33    75	 9 ;       HGA1      CG311      CG331       HGA3
   33    31    32    70	 9 ;      CG331      CG311      CG331       HGA3
   33    31    32    71	 9 ;      CG331      CG311      CG331       HGA3
   33    31    32    72	 9 ;      CG331      CG311      CG331       HGA3
   30    31    32    70	 9 ;      CG321      CG311      CG331       HGA3
   30    31    32    71	 9 ;      CG321      CG311      CG331       HGA3
   30    31    32    72	 9 ;      CG321      CG311      CG331       HGA3
   69    31    32    70	 9 ;       HGA1      CG311      CG331       HGA3
   69    31    32    71	 9 ;       HGA1      CG311      CG331       HGA3
   69    31    32    72	 9 ;       HGA1      CG311      CG331       HGA3
   24    34    35    36	 9 ;      CG311      CG321      CG321      SG311
   24    34    35    78	 9 ;      CG311      CG321      CG321       HGA2
   24    34    35    79	 9 ;      CG311      CG321      CG321       HGA2
   76    34    35    36	 9 ;       HGA2      CG321      CG321      SG311
   76    34    35    78	 9 ;       HGA2      CG321      CG321       HGA2
   76    34    35    79	 9 ;       HGA2      CG321      CG321       HGA2
   77    34    35    36	 9 ;       HGA2      CG321      CG321      SG311
   77    34    35    78	 9 ;       HGA2      CG321      CG321       HGA2
   77    34    35    79	 9 ;       HGA2      CG321      CG321       HGA2
   34    35    36    37	 9 ;      CG321      CG321      SG311      CG331
   78    35    36    37	 9 ;       HGA2      CG321      SG311      CG331
   79    35    36    37	 9 ;       HGA2      CG321      SG311      CG331
   35    36    37    80	 9 ;      CG321      SG311      CG331       HGA3
   35    36    37    81	 9 ;      CG321      SG311      CG331       HGA3
   35    36    37    82	 9 ;      CG321      SG311      CG331       HGA3

[ dihedrals ]
;	ai	  aj	ak	  al funct			  c0			c1			  c2			c3
   12    10    14    13	 2
   21    24    20    22	 2
   26    29    25    27	 2

