GROwing Monsters And Cloning Shrimps
   45
    1LIG     C1    1  -1.400   0.519  -1.677
    1LIG     O5    2  -1.145   0.446  -1.749
    1LIG     C3    3  -1.177   0.219  -1.693
    1LIG     C4    4  -1.268   0.120  -1.651
    1LIG     C5    5  -1.047   0.185  -1.731
    1LIG     C6    6  -1.226  -0.014  -1.651
    1LIG     C7    7  -1.008   0.052  -1.728
    1LIG     C8    8  -1.096  -0.048  -1.689
    1LIG     C9    9  -1.353   0.398  -1.642
    1LIG    C10   10  -1.416   0.295  -1.553
    1LIG    C11   11  -1.219   0.362  -1.699
    1LIG    C12   12  -1.409   0.156  -1.614
    1LIG     N1   13  -1.517   0.650  -1.517
    1LIG     O4   14  -1.633   0.566  -1.695
    1LIG     C2   15  -1.528   0.579  -1.634
    1LIG     H2   16  -1.435   0.635  -1.459
    1LIG    C13   17  -1.636   0.699  -1.447
    1LIG    C15   18  -1.644   0.853  -1.454
    1LIG    C16   19  -1.549   0.909  -1.561
    1LIG    C17   20  -1.787   0.902  -1.484
    1LIG     O2   21  -1.690   0.696  -1.208
    1LIG    C14   22  -1.624   0.652  -1.301
    1LIG     O3   23  -1.532   0.551  -1.291
    1LIG    C18   24  -1.513   0.503  -1.158
    1LIG     O1   25  -0.882   0.014  -1.765
    1LIG     H1   26  -0.876   0.015  -1.862
    1LIG     H3   27  -1.341   0.576  -1.740
    1LIG     H4   28  -0.980   0.258  -1.761
    1LIG     H5   29  -1.292  -0.088  -1.622
    1LIG     H6   30  -1.066  -0.146  -1.687
    1LIG     H7   31  -1.518   0.321  -1.536
    1LIG     H8   32  -1.362   0.294  -1.460
    1LIG     H9   33  -1.445   0.084  -1.543
    1LIG    H10   34  -1.469   0.155  -1.703
    1LIG    H11   35  -1.726   0.662  -1.492
    1LIG    H12   36  -1.615   0.890  -1.358
    1LIG    H13   37  -1.579   0.872  -1.657
    1LIG    H14   38  -1.449   0.877  -1.540
    1LIG    H15   39  -1.554   1.015  -1.561
    1LIG    H16   40  -1.817   0.866  -1.580
    1LIG    H17   41  -1.789   1.009  -1.484
    1LIG    H18   42  -1.854   0.864  -1.409
    1LIG    H19   43  -1.440   0.425  -1.158
    1LIG    H20   44  -1.606   0.465  -1.120
    1LIG    H21   45  -1.479   0.583  -1.096
   0.00000   0.00000   0.00000
