; Created by cgenff_charmm2gmx.py

[ moleculetype ]
; Name			   nrexcl
LIG				 3

[ atoms ]
;	 nr		  type	resnr residue  atom   cgnr	   charge		mass  typeB    chargeB		massB
; residue	 1 LIG rtp LIG q	qsum
     1      NG301      1    LIG     N1      1     -0.521     14.007   ;
     2     CG2D1O      1    LIG     C1      2      0.237     12.011   ;
     3      CG331      1    LIG     C2      3     -0.281     12.011   ;
     4     CG2DC1      1    LIG     C3      4      0.269     12.011   ;
     5      CG311      1    LIG     C4      5     -0.241     12.011   ;
     6      CG331      1    LIG     C5      6     -0.305     12.011   ;
     7      CG311      1    LIG     C6      7     -0.103     12.011   ;
     8      CG311      1    LIG     C7      8      0.149     12.011   ;
     9      CG331      1    LIG     C8      9     -0.256     12.011   ;
    10      CG2O1      1    LIG     C9     10      0.368     12.011   ;
    11      OG2D1      1    LIG     O1     11     -0.485     15.999   ;
    12      NG2S1      1    LIG     N2     12     -0.333     14.007   ;
    13       HGP1      1    LIG     H1     13      0.232      1.008   ;
    14      CG311      1    LIG    C10     14     -0.018     12.011   ;
    15      CG321      1    LIG    C11     15     -0.111     12.011   ;
    16     CG2R61      1    LIG    C12     16     -0.019     12.011   ;
    17     CG2R61      1    LIG    C13     17     -0.123     12.011   ;
    18     CG2R61      1    LIG    C14     18     -0.112     12.011   ;
    19     CG2R61      1    LIG    C15     19     -0.116     12.011   ;
    20     CG2R61      1    LIG    C16     20     -0.112     12.011   ;
    21     CG2R61      1    LIG    C17     21     -0.123     12.011   ;
    22      CG311      1    LIG    C18     22      0.093     12.011   ;
    23      CG324      1    LIG    C19     23      0.183     12.011   ;
    24      NG3P2      1    LIG     N3     24     -0.409     14.007   ;
    25       HGP2      1    LIG     H2     25      0.335      1.008   ;
    26       HGP2      1    LIG     H3     26      0.335      1.008   ;
    27     CG3C31      1    LIG    C20     27      0.283     12.011   ;
    28     CG3C31      1    LIG    C21     28     -0.179     12.011   ;
    29     CG3C31      1    LIG    C22     29     -0.179     12.011   ;
    30      OG311      1    LIG     O2     30     -0.625     15.999   ;
    31       HGP1      1    LIG     H4     31      0.415      1.008   ;
    32      CG321      1    LIG    C23     32     -0.083     12.011   ;
    33      CG2O2      1    LIG    C24     33      0.889     12.011   ;
    34      OG2D1      1    LIG     O3     34     -0.616     15.999   ;
    35      OG302      1    LIG     O4     35     -0.488     15.999   ;
    36      CG331      1    LIG    C25     36     -0.011     12.011   ;
    37      CG2O1      1    LIG    C26     37      0.515     12.011   ;
    38      OG2D1      1    LIG     O5     38     -0.453     15.999   ;
    39      NG2S1      1    LIG     N4     39     -0.323     14.007   ;
    40       HGP1      1    LIG     H5     40      0.335      1.008   ;
    41      OG301      1    LIG     O6     41     -0.379     15.999   ;
    42      CG321      1    LIG    C27     42      0.100     12.011   ;
    43     CG2R61      1    LIG    C28     43     -0.008     12.011   ;
    44     CG2R61      1    LIG    C29     44     -0.123     12.011   ;
    45     CG2R61      1    LIG    C30     45     -0.112     12.011   ;
    46     CG2R61      1    LIG    C31     46     -0.116     12.011   ;
    47     CG2R61      1    LIG    C32     47     -0.112     12.011   ;
    48     CG2R61      1    LIG    C33     48     -0.123     12.011   ;
    49       HGA3      1    LIG    HC1     49      0.090      1.008   ;
    50       HGA3      1    LIG    HC2     50      0.090      1.008   ;
    51       HGA3      1    LIG    HC3     51      0.090      1.008   ;
    52       HGA1      1    LIG     HC     52      0.090      1.008   ;
    53       HGA3      1    LIG    HC4     53      0.090      1.008   ;
    54       HGA3      1    LIG    HC5     54      0.090      1.008   ;
    55       HGA3      1    LIG    HC6     55      0.090      1.008   ;
    56       HGA3      1    LIG    HC7     56      0.090      1.008   ;
    57       HGA3      1    LIG    HC8     57      0.090      1.008   ;
    58       HGA3      1    LIG    HC9     58      0.090      1.008   ;
    59       HGA1      1    LIG   HC10     59      0.090      1.008   ;
    60       HGA2      1    LIG   HC11     60      0.090      1.008   ;
    61       HGA2      1    LIG   HC12     61      0.090      1.008   ;
    62      HGR61      1    LIG   HC13     62      0.116      1.008   ;
    63      HGR61      1    LIG   HC14     63      0.116      1.008   ;
    64      HGR61      1    LIG   HC15     64      0.116      1.008   ;
    65      HGR61      1    LIG   HC16     65      0.116      1.008   ;
    66      HGR61      1    LIG   HC17     66      0.116      1.008   ;
    67       HGA1      1    LIG   HC18     67      0.090      1.008   ;
    68       HGA2      1    LIG   HC19     68      0.090      1.008   ;
    69       HGA2      1    LIG   HC20     69      0.090      1.008   ;
    70       HGA1      1    LIG   HC21     70      0.090      1.008   ;
    71       HGA2      1    LIG   HC22     71      0.090      1.008   ;
    72       HGA2      1    LIG   HC23     72      0.090      1.008   ;
    73       HGA2      1    LIG   HC24     73      0.090      1.008   ;
    74       HGA2      1    LIG   HC25     74      0.090      1.008   ;
    75       HGA2      1    LIG   HC26     75      0.090      1.008   ;
    76       HGA2      1    LIG   HC27     76      0.090      1.008   ;
    77       HGA3      1    LIG   HC28     77      0.090      1.008   ;
    78       HGA3      1    LIG   HC29     78      0.090      1.008   ;
    79       HGA3      1    LIG   HC30     79      0.090      1.008   ;
    80       HGA2      1    LIG   HC31     80      0.090      1.008   ;
    81       HGA2      1    LIG   HC32     81      0.090      1.008   ;
    82      HGR61      1    LIG   HC33     82      0.116      1.008   ;
    83      HGR61      1    LIG   HC34     83      0.116      1.008   ;
    84      HGR61      1    LIG   HC35     84      0.116      1.008   ;
    85      HGR61      1    LIG   HC36     85      0.116      1.008   ;
    86      HGR61      1    LIG   HC37     86      0.116      1.008   ;
    87       HGA1      1    LIG    H44     87      0.090      1.008   ;
    88       HGA1      1    LIG    H45     88      0.090      1.008   ;

[ bonds ]
;	ai	  aj funct			  c0			c1			  c2			c3
    1     2	 1 ;       NG301     CG2D1O
    1    32	 1 ;       NG301      CG321
    1     8	 1 ;       NG301      CG311
    2     3	 1 ;      CG2D1O      CG331
    2     4	 1 ;      CG2D1O     CG2DC1
    3    49	 1 ;       CG331       HGA3
    3    50	 1 ;       CG331       HGA3
    3    51	 1 ;       CG331       HGA3
    4    10	 1 ;      CG2DC1      CG2O1
    4     5	 1 ;      CG2DC1      CG311
    5     6	 1 ;       CG311      CG331
    5     7	 1 ;       CG311      CG311
    5    52	 1 ;       CG311       HGA1
    6    53	 1 ;       CG331       HGA3
    6    54	 1 ;       CG331       HGA3
    6    55	 1 ;       CG331       HGA3
    7     8	 1 ;       CG311      CG311
    7    37	 1 ;       CG311      CG2O1
    7    87	 1 ;       CG311       HGA1
    8     9	 1 ;       CG311      CG331
    8    88	 1 ;       CG311       HGA1
    9    56	 1 ;       CG331       HGA3
    9    57	 1 ;       CG331       HGA3
    9    58	 1 ;       CG331       HGA3
   10    11	 1 ;       CG2O1      OG2D1
   10    12	 1 ;       CG2O1      NG2S1
   12    14	 1 ;       NG2S1      CG311
   12    13	 1 ;       NG2S1       HGP1
   14    15	 1 ;       CG311      CG321
   14    22	 1 ;       CG311      CG311
   14    59	 1 ;       CG311       HGA1
   15    16	 1 ;       CG321     CG2R61
   15    60	 1 ;       CG321       HGA2
   15    61	 1 ;       CG321       HGA2
   16    21	 1 ;      CG2R61     CG2R61
   16    17	 1 ;      CG2R61     CG2R61
   17    18	 1 ;      CG2R61     CG2R61
   17    62	 1 ;      CG2R61      HGR61
   18    19	 1 ;      CG2R61     CG2R61
   18    63	 1 ;      CG2R61      HGR61
   19    20	 1 ;      CG2R61     CG2R61
   19    64	 1 ;      CG2R61      HGR61
   20    21	 1 ;      CG2R61     CG2R61
   20    65	 1 ;      CG2R61      HGR61
   21    66	 1 ;      CG2R61      HGR61
   22    23	 1 ;       CG311      CG324
   22    30	 1 ;       CG311      OG311
   22    67	 1 ;       CG311       HGA1
   23    24	 1 ;       CG324      NG3P2
   23    68	 1 ;       CG324       HGA2
   23    69	 1 ;       CG324       HGA2
   24    26	 1 ;       NG3P2       HGP2
   24    27	 1 ;       NG3P2     CG3C31
   24    25	 1 ;       NG3P2       HGP2
   27    29	 1 ;      CG3C31     CG3C31
   27    28	 1 ;      CG3C31     CG3C31
   27    70	 1 ;      CG3C31       HGA1
   28    29	 1 ;      CG3C31     CG3C31
   28    71	 1 ;      CG3C31       HGA2
   28    72	 1 ;      CG3C31       HGA2
   29    73	 1 ;      CG3C31       HGA2
   29    74	 1 ;      CG3C31       HGA2
   30    31	 1 ;       OG311       HGP1
   32    33	 1 ;       CG321      CG2O2
   32    75	 1 ;       CG321       HGA2
   32    76	 1 ;       CG321       HGA2
   33    34	 1 ;       CG2O2      OG2D1
   33    35	 1 ;       CG2O2      OG302
   35    36	 1 ;       OG302      CG331
   36    77	 1 ;       CG331       HGA3
   36    78	 1 ;       CG331       HGA3
   36    79	 1 ;       CG331       HGA3
   37    38	 1 ;       CG2O1      OG2D1
   37    39	 1 ;       CG2O1      NG2S1
   39    40	 1 ;       NG2S1       HGP1
   39    41	 1 ;       NG2S1      OG301
   41    42	 1 ;       OG301      CG321
   42    43	 1 ;       CG321     CG2R61
   42    80	 1 ;       CG321       HGA2
   42    81	 1 ;       CG321       HGA2
   43    48	 1 ;      CG2R61     CG2R61
   43    44	 1 ;      CG2R61     CG2R61
   44    45	 1 ;      CG2R61     CG2R61
   44    82	 1 ;      CG2R61      HGR61
   45    46	 1 ;      CG2R61     CG2R61
   45    83	 1 ;      CG2R61      HGR61
   46    47	 1 ;      CG2R61     CG2R61
   46    84	 1 ;      CG2R61      HGR61
   47    48	 1 ;      CG2R61     CG2R61
   47    85	 1 ;      CG2R61      HGR61
   48    86	 1 ;      CG2R61      HGR61

[ pairs ]
;	ai	  aj funct			  c0			c1			  c2			c3
    1    49	 1
    1    50	 1
    1    51	 1
    1    10	 1
    1     5	 1
    1    37	 1
    1    87	 1
    1    56	 1
    1    57	 1
    1    58	 1
    1    34	 1
    1    35	 1
    2    33	 1
    2    75	 1
    2    76	 1
    2     7	 1
    2     9	 1
    2    88	 1
    2    11	 1
    2    12	 1
    2     6	 1
    2    52	 1
    3    32	 1
    3     8	 1
    3    10	 1
    3     5	 1
    4    32	 1
    4     8	 1
    4    49	 1
    4    50	 1
    4    51	 1
    4    53	 1
    4    54	 1
    4    55	 1
    4    37	 1
    4    87	 1
    4    14	 1
    4    13	 1
    5    11	 1
    5    12	 1
    5     9	 1
    5    88	 1
    5    38	 1
    5    39	 1
    6    10	 1
    6     8	 1
    6    37	 1
    6    87	 1
    7    32	 1
    7    10	 1
    7    53	 1
    7    54	 1
    7    55	 1
    7    56	 1
    7    57	 1
    7    58	 1
    7    40	 1
    7    41	 1
    8    33	 1
    8    75	 1
    8    76	 1
    8    52	 1
    8    38	 1
    8    39	 1
    9    32	 1
    9    37	 1
    9    87	 1
   10    52	 1
   10    15	 1
   10    22	 1
   10    59	 1
   11    14	 1
   11    13	 1
   12    16	 1
   12    60	 1
   12    61	 1
   12    23	 1
   12    30	 1
   12    67	 1
   13    15	 1
   13    22	 1
   13    59	 1
   14    21	 1
   14    17	 1
   14    24	 1
   14    68	 1
   14    69	 1
   14    31	 1
   15    23	 1
   15    30	 1
   15    67	 1
   15    20	 1
   15    66	 1
   15    18	 1
   15    62	 1
   16    22	 1
   16    59	 1
   16    19	 1
   16    63	 1
   16    65	 1
   17    60	 1
   17    61	 1
   17    20	 1
   17    66	 1
   17    64	 1
   18    21	 1
   18    65	 1
   19    62	 1
   19    66	 1
   20    63	 1
   21    60	 1
   21    61	 1
   21    62	 1
   21    64	 1
   22    60	 1
   22    61	 1
   22    26	 1
   22    27	 1
   22    25	 1
   23    59	 1
   23    31	 1
   23    29	 1
   23    28	 1
   23    70	 1
   24    30	 1
   24    67	 1
   24    73	 1
   24    74	 1
   24    71	 1
   24    72	 1
   25    68	 1
   25    69	 1
   25    29	 1
   25    28	 1
   25    70	 1
   26    68	 1
   26    69	 1
   26    29	 1
   26    28	 1
   26    70	 1
   27    68	 1
   27    69	 1
   30    59	 1
   30    68	 1
   30    69	 1
   31    67	 1
   32    88	 1
   32    36	 1
   33    77	 1
   33    78	 1
   33    79	 1
   34    75	 1
   34    76	 1
   34    36	 1
   35    75	 1
   35    76	 1
   37    52	 1
   37    88	 1
   37    42	 1
   38    87	 1
   38    40	 1
   38    41	 1
   39    87	 1
   39    43	 1
   39    80	 1
   39    81	 1
   40    42	 1
   41    48	 1
   41    44	 1
   42    47	 1
   42    86	 1
   42    45	 1
   42    82	 1
   43    46	 1
   43    83	 1
   43    85	 1
   44    80	 1
   44    81	 1
   44    47	 1
   44    86	 1
   44    84	 1
   45    48	 1
   45    85	 1
   46    82	 1
   46    86	 1
   47    83	 1
   48    80	 1
   48    81	 1
   48    82	 1
   48    84	 1
   52    53	 1
   52    54	 1
   52    55	 1
   52    87	 1
   56    88	 1
   57    88	 1
   58    88	 1
   59    60	 1
   59    61	 1
   59    67	 1
   62    63	 1
   63    64	 1
   64    65	 1
   65    66	 1
   67    68	 1
   67    69	 1
   70    73	 1
   70    74	 1
   70    71	 1
   70    72	 1
   71    73	 1
   71    74	 1
   72    73	 1
   72    74	 1
   82    83	 1
   83    84	 1
   84    85	 1
   85    86	 1
   87    88	 1

[ angles ]
;	ai	  aj	ak funct			c0			  c1			c2			  c3
    2     1    32	5 ;     CG2D1O      NG301      CG321
    2     1     8	5 ;     CG2D1O      NG301      CG311
   32     1     8	5 ;      CG321      NG301      CG311
    3     2     4	5 ;      CG331     CG2D1O     CG2DC1
    3     2     1	5 ;      CG331     CG2D1O      NG301
    4     2     1	5 ;     CG2DC1     CG2D1O      NG301
    2     3    49	5 ;     CG2D1O      CG331       HGA3
    2     3    50	5 ;     CG2D1O      CG331       HGA3
    2     3    51	5 ;     CG2D1O      CG331       HGA3
   49     3    50	5 ;       HGA3      CG331       HGA3
   49     3    51	5 ;       HGA3      CG331       HGA3
   50     3    51	5 ;       HGA3      CG331       HGA3
   10     4     2	5 ;      CG2O1     CG2DC1     CG2D1O
   10     4     5	5 ;      CG2O1     CG2DC1      CG311
    2     4     5	5 ;     CG2D1O     CG2DC1      CG311
    4     5     6	5 ;     CG2DC1      CG311      CG331
    4     5     7	5 ;     CG2DC1      CG311      CG311
    4     5    52	5 ;     CG2DC1      CG311       HGA1
    6     5     7	5 ;      CG331      CG311      CG311
    6     5    52	5 ;      CG331      CG311       HGA1
    7     5    52	5 ;      CG311      CG311       HGA1
    5     6    53	5 ;      CG311      CG331       HGA3
    5     6    54	5 ;      CG311      CG331       HGA3
    5     6    55	5 ;      CG311      CG331       HGA3
   53     6    54	5 ;       HGA3      CG331       HGA3
   53     6    55	5 ;       HGA3      CG331       HGA3
   54     6    55	5 ;       HGA3      CG331       HGA3
    5     7     8	5 ;      CG311      CG311      CG311
    5     7    37	5 ;      CG311      CG311      CG2O1
    5     7    87	5 ;      CG311      CG311       HGA1
    8     7    37	5 ;      CG311      CG311      CG2O1
    8     7    87	5 ;      CG311      CG311       HGA1
   37     7    87	5 ;      CG2O1      CG311       HGA1
    1     8     7	5 ;      NG301      CG311      CG311
    1     8     9	5 ;      NG301      CG311      CG331
    1     8    88	5 ;      NG301      CG311       HGA1
    7     8     9	5 ;      CG311      CG311      CG331
    7     8    88	5 ;      CG311      CG311       HGA1
    9     8    88	5 ;      CG331      CG311       HGA1
    8     9    56	5 ;      CG311      CG331       HGA3
    8     9    57	5 ;      CG311      CG331       HGA3
    8     9    58	5 ;      CG311      CG331       HGA3
   56     9    57	5 ;       HGA3      CG331       HGA3
   56     9    58	5 ;       HGA3      CG331       HGA3
   57     9    58	5 ;       HGA3      CG331       HGA3
   11    10    12	5 ;      OG2D1      CG2O1      NG2S1
   11    10     4	5 ;      OG2D1      CG2O1     CG2DC1
   12    10     4	5 ;      NG2S1      CG2O1     CG2DC1
   14    12    10	5 ;      CG311      NG2S1      CG2O1
   14    12    13	5 ;      CG311      NG2S1       HGP1
   10    12    13	5 ;      CG2O1      NG2S1       HGP1
   15    14    22	5 ;      CG321      CG311      CG311
   15    14    12	5 ;      CG321      CG311      NG2S1
   15    14    59	5 ;      CG321      CG311       HGA1
   22    14    12	5 ;      CG311      CG311      NG2S1
   22    14    59	5 ;      CG311      CG311       HGA1
   12    14    59	5 ;      NG2S1      CG311       HGA1
   16    15    14	5 ;     CG2R61      CG321      CG311
   16    15    60	5 ;     CG2R61      CG321       HGA2
   16    15    61	5 ;     CG2R61      CG321       HGA2
   14    15    60	5 ;      CG311      CG321       HGA2
   14    15    61	5 ;      CG311      CG321       HGA2
   60    15    61	5 ;       HGA2      CG321       HGA2
   21    16    17	5 ;     CG2R61     CG2R61     CG2R61
   21    16    15	5 ;     CG2R61     CG2R61      CG321
   17    16    15	5 ;     CG2R61     CG2R61      CG321
   18    17    16	5 ;     CG2R61     CG2R61     CG2R61
   18    17    62	5 ;     CG2R61     CG2R61      HGR61
   16    17    62	5 ;     CG2R61     CG2R61      HGR61
   19    18    17	5 ;     CG2R61     CG2R61     CG2R61
   19    18    63	5 ;     CG2R61     CG2R61      HGR61
   17    18    63	5 ;     CG2R61     CG2R61      HGR61
   20    19    18	5 ;     CG2R61     CG2R61     CG2R61
   20    19    64	5 ;     CG2R61     CG2R61      HGR61
   18    19    64	5 ;     CG2R61     CG2R61      HGR61
   19    20    21	5 ;     CG2R61     CG2R61     CG2R61
   19    20    65	5 ;     CG2R61     CG2R61      HGR61
   21    20    65	5 ;     CG2R61     CG2R61      HGR61
   20    21    16	5 ;     CG2R61     CG2R61     CG2R61
   20    21    66	5 ;     CG2R61     CG2R61      HGR61
   16    21    66	5 ;     CG2R61     CG2R61      HGR61
   23    22    14	5 ;      CG324      CG311      CG311
   23    22    30	5 ;      CG324      CG311      OG311
   23    22    67	5 ;      CG324      CG311       HGA1
   14    22    30	5 ;      CG311      CG311      OG311
   14    22    67	5 ;      CG311      CG311       HGA1
   30    22    67	5 ;      OG311      CG311       HGA1
   24    23    22	5 ;      NG3P2      CG324      CG311
   24    23    68	5 ;      NG3P2      CG324       HGA2
   24    23    69	5 ;      NG3P2      CG324       HGA2
   22    23    68	5 ;      CG311      CG324       HGA2
   22    23    69	5 ;      CG311      CG324       HGA2
   68    23    69	5 ;       HGA2      CG324       HGA2
   26    24    23	5 ;       HGP2      NG3P2      CG324
   26    24    27	5 ;       HGP2      NG3P2     CG3C31
   26    24    25	5 ;       HGP2      NG3P2       HGP2
   23    24    27	5 ;      CG324      NG3P2     CG3C31
   23    24    25	5 ;      CG324      NG3P2       HGP2
   27    24    25	5 ;     CG3C31      NG3P2       HGP2
   24    27    29	5 ;      NG3P2     CG3C31     CG3C31
   24    27    28	5 ;      NG3P2     CG3C31     CG3C31
   24    27    70	5 ;      NG3P2     CG3C31       HGA1
   29    27    28	5 ;     CG3C31     CG3C31     CG3C31
   29    27    70	5 ;     CG3C31     CG3C31       HGA1
   28    27    70	5 ;     CG3C31     CG3C31       HGA1
   27    28    29	5 ;     CG3C31     CG3C31     CG3C31
   27    28    71	5 ;     CG3C31     CG3C31       HGA2
   27    28    72	5 ;     CG3C31     CG3C31       HGA2
   29    28    71	5 ;     CG3C31     CG3C31       HGA2
   29    28    72	5 ;     CG3C31     CG3C31       HGA2
   71    28    72	5 ;       HGA2     CG3C31       HGA2
   27    29    28	5 ;     CG3C31     CG3C31     CG3C31
   27    29    73	5 ;     CG3C31     CG3C31       HGA2
   27    29    74	5 ;     CG3C31     CG3C31       HGA2
   28    29    73	5 ;     CG3C31     CG3C31       HGA2
   28    29    74	5 ;     CG3C31     CG3C31       HGA2
   73    29    74	5 ;       HGA2     CG3C31       HGA2
   22    30    31	5 ;      CG311      OG311       HGP1
   33    32     1	5 ;      CG2O2      CG321      NG301
   33    32    75	5 ;      CG2O2      CG321       HGA2
   33    32    76	5 ;      CG2O2      CG321       HGA2
    1    32    75	5 ;      NG301      CG321       HGA2
    1    32    76	5 ;      NG301      CG321       HGA2
   75    32    76	5 ;       HGA2      CG321       HGA2
   34    33    35	5 ;      OG2D1      CG2O2      OG302
   34    33    32	5 ;      OG2D1      CG2O2      CG321
   35    33    32	5 ;      OG302      CG2O2      CG321
   36    35    33	5 ;      CG331      OG302      CG2O2
   35    36    77	5 ;      OG302      CG331       HGA3
   35    36    78	5 ;      OG302      CG331       HGA3
   35    36    79	5 ;      OG302      CG331       HGA3
   77    36    78	5 ;       HGA3      CG331       HGA3
   77    36    79	5 ;       HGA3      CG331       HGA3
   78    36    79	5 ;       HGA3      CG331       HGA3
    7    37    38	5 ;      CG311      CG2O1      OG2D1
    7    37    39	5 ;      CG311      CG2O1      NG2S1
   38    37    39	5 ;      OG2D1      CG2O1      NG2S1
   37    39    40	5 ;      CG2O1      NG2S1       HGP1
   37    39    41	5 ;      CG2O1      NG2S1      OG301
   40    39    41	5 ;       HGP1      NG2S1      OG301
   39    41    42	5 ;      NG2S1      OG301      CG321
   41    42    43	5 ;      OG301      CG321     CG2R61
   41    42    80	5 ;      OG301      CG321       HGA2
   41    42    81	5 ;      OG301      CG321       HGA2
   43    42    80	5 ;     CG2R61      CG321       HGA2
   43    42    81	5 ;     CG2R61      CG321       HGA2
   80    42    81	5 ;       HGA2      CG321       HGA2
   42    43    48	5 ;      CG321     CG2R61     CG2R61
   42    43    44	5 ;      CG321     CG2R61     CG2R61
   48    43    44	5 ;     CG2R61     CG2R61     CG2R61
   43    44    45	5 ;     CG2R61     CG2R61     CG2R61
   43    44    82	5 ;     CG2R61     CG2R61      HGR61
   45    44    82	5 ;     CG2R61     CG2R61      HGR61
   44    45    46	5 ;     CG2R61     CG2R61     CG2R61
   44    45    83	5 ;     CG2R61     CG2R61      HGR61
   46    45    83	5 ;     CG2R61     CG2R61      HGR61
   47    46    45	5 ;     CG2R61     CG2R61     CG2R61
   47    46    84	5 ;     CG2R61     CG2R61      HGR61
   45    46    84	5 ;     CG2R61     CG2R61      HGR61
   48    47    46	5 ;     CG2R61     CG2R61     CG2R61
   48    47    85	5 ;     CG2R61     CG2R61      HGR61
   46    47    85	5 ;     CG2R61     CG2R61      HGR61
   43    48    47	5 ;     CG2R61     CG2R61     CG2R61
   43    48    86	5 ;     CG2R61     CG2R61      HGR61
   47    48    86	5 ;     CG2R61     CG2R61      HGR61

[ dihedrals ]
;	ai	  aj	ak	  al funct			  c0			c1			  c2			c3			  c4			c5
   32     1     2     3	 9 ;      CG321      NG301     CG2D1O      CG331
   32     1     2     4	 9 ;      CG321      NG301     CG2D1O     CG2DC1
    8     1     2     3	 9 ;      CG311      NG301     CG2D1O      CG331
    8     1     2     4	 9 ;      CG311      NG301     CG2D1O     CG2DC1
    2     1    32    33	 9 ;     CG2D1O      NG301      CG321      CG2O2
    2     1    32    75	 9 ;     CG2D1O      NG301      CG321       HGA2
    2     1    32    76	 9 ;     CG2D1O      NG301      CG321       HGA2
    8     1    32    33	 9 ;      CG311      NG301      CG321      CG2O2
    8     1    32    75	 9 ;      CG311      NG301      CG321       HGA2
    8     1    32    76	 9 ;      CG311      NG301      CG321       HGA2
    2     1     8     7	 9 ;     CG2D1O      NG301      CG311      CG311
    2     1     8     9	 9 ;     CG2D1O      NG301      CG311      CG331
    2     1     8    88	 9 ;     CG2D1O      NG301      CG311       HGA1
   32     1     8     7	 9 ;      CG321      NG301      CG311      CG311
   32     1     8     9	 9 ;      CG321      NG301      CG311      CG331
   32     1     8    88	 9 ;      CG321      NG301      CG311       HGA1
    4     2     3    49	 9 ;     CG2DC1     CG2D1O      CG331       HGA3
    4     2     3    50	 9 ;     CG2DC1     CG2D1O      CG331       HGA3
    4     2     3    51	 9 ;     CG2DC1     CG2D1O      CG331       HGA3
    1     2     3    49	 9 ;      NG301     CG2D1O      CG331       HGA3
    1     2     3    50	 9 ;      NG301     CG2D1O      CG331       HGA3
    1     2     3    51	 9 ;      NG301     CG2D1O      CG331       HGA3
    3     2     4    10	 9 ;      CG331     CG2D1O     CG2DC1      CG2O1
    3     2     4     5	 9 ;      CG331     CG2D1O     CG2DC1      CG311
    1     2     4    10	 9 ;      NG301     CG2D1O     CG2DC1      CG2O1
    1     2     4     5	 9 ;      NG301     CG2D1O     CG2DC1      CG311
    2     4    10    11	 9 ;     CG2D1O     CG2DC1      CG2O1      OG2D1
    2     4    10    12	 9 ;     CG2D1O     CG2DC1      CG2O1      NG2S1
    5     4    10    11	 9 ;      CG311     CG2DC1      CG2O1      OG2D1
    5     4    10    12	 9 ;      CG311     CG2DC1      CG2O1      NG2S1
   10     4     5     6	 9 ;      CG2O1     CG2DC1      CG311      CG331
   10     4     5     7	 9 ;      CG2O1     CG2DC1      CG311      CG311
   10     4     5    52	 9 ;      CG2O1     CG2DC1      CG311       HGA1
    2     4     5     6	 9 ;     CG2D1O     CG2DC1      CG311      CG331
    2     4     5     7	 9 ;     CG2D1O     CG2DC1      CG311      CG311
    2     4     5    52	 9 ;     CG2D1O     CG2DC1      CG311       HGA1
    4     5     6    53	 9 ;     CG2DC1      CG311      CG331       HGA3
    4     5     6    54	 9 ;     CG2DC1      CG311      CG331       HGA3
    4     5     6    55	 9 ;     CG2DC1      CG311      CG331       HGA3
    7     5     6    53	 9 ;      CG311      CG311      CG331       HGA3
    7     5     6    54	 9 ;      CG311      CG311      CG331       HGA3
    7     5     6    55	 9 ;      CG311      CG311      CG331       HGA3
   52     5     6    53	 9 ;       HGA1      CG311      CG331       HGA3
   52     5     6    54	 9 ;       HGA1      CG311      CG331       HGA3
   52     5     6    55	 9 ;       HGA1      CG311      CG331       HGA3
    4     5     7     8	 9 ;     CG2DC1      CG311      CG311      CG311
    4     5     7    37	 9 ;     CG2DC1      CG311      CG311      CG2O1
    4     5     7    87	 9 ;     CG2DC1      CG311      CG311       HGA1
    6     5     7     8	 9 ;      CG331      CG311      CG311      CG311
    6     5     7    37	 9 ;      CG331      CG311      CG311      CG2O1
    6     5     7    87	 9 ;      CG331      CG311      CG311       HGA1
   52     5     7     8	 9 ;       HGA1      CG311      CG311      CG311
   52     5     7    37	 9 ;       HGA1      CG311      CG311      CG2O1
   52     5     7    87	 9 ;       HGA1      CG311      CG311       HGA1
    5     7     8     1	 9 ;      CG311      CG311      CG311      NG301
    5     7     8     9	 9 ;      CG311      CG311      CG311      CG331
    5     7     8    88	 9 ;      CG311      CG311      CG311       HGA1
   37     7     8     1	 9 ;      CG2O1      CG311      CG311      NG301
   37     7     8     9	 9 ;      CG2O1      CG311      CG311      CG331
   37     7     8    88	 9 ;      CG2O1      CG311      CG311       HGA1
   87     7     8     1	 9 ;       HGA1      CG311      CG311      NG301
   87     7     8     9	 9 ;       HGA1      CG311      CG311      CG331
   87     7     8    88	 9 ;       HGA1      CG311      CG311       HGA1
    5     7    37    38	 9 ;      CG311      CG311      CG2O1      OG2D1
    5     7    37    39	 9 ;      CG311      CG311      CG2O1      NG2S1
    8     7    37    38	 9 ;      CG311      CG311      CG2O1      OG2D1
    8     7    37    39	 9 ;      CG311      CG311      CG2O1      NG2S1
   87     7    37    38	 9 ;       HGA1      CG311      CG2O1      OG2D1
   87     7    37    39	 9 ;       HGA1      CG311      CG2O1      NG2S1
    1     8     9    56	 9 ;      NG301      CG311      CG331       HGA3
    1     8     9    57	 9 ;      NG301      CG311      CG331       HGA3
    1     8     9    58	 9 ;      NG301      CG311      CG331       HGA3
    7     8     9    56	 9 ;      CG311      CG311      CG331       HGA3
    7     8     9    57	 9 ;      CG311      CG311      CG331       HGA3
    7     8     9    58	 9 ;      CG311      CG311      CG331       HGA3
   88     8     9    56	 9 ;       HGA1      CG311      CG331       HGA3
   88     8     9    57	 9 ;       HGA1      CG311      CG331       HGA3
   88     8     9    58	 9 ;       HGA1      CG311      CG331       HGA3
   11    10    12    14	 9 ;      OG2D1      CG2O1      NG2S1      CG311
   11    10    12    13	 9 ;      OG2D1      CG2O1      NG2S1       HGP1
    4    10    12    14	 9 ;     CG2DC1      CG2O1      NG2S1      CG311
    4    10    12    13	 9 ;     CG2DC1      CG2O1      NG2S1       HGP1
   10    12    14    15	 9 ;      CG2O1      NG2S1      CG311      CG321
   10    12    14    22	 9 ;      CG2O1      NG2S1      CG311      CG311
   10    12    14    59	 9 ;      CG2O1      NG2S1      CG311       HGA1
   13    12    14    15	 9 ;       HGP1      NG2S1      CG311      CG321
   13    12    14    22	 9 ;       HGP1      NG2S1      CG311      CG311
   13    12    14    59	 9 ;       HGP1      NG2S1      CG311       HGA1
   22    14    15    16	 9 ;      CG311      CG311      CG321     CG2R61
   22    14    15    60	 9 ;      CG311      CG311      CG321       HGA2
   22    14    15    61	 9 ;      CG311      CG311      CG321       HGA2
   12    14    15    16	 9 ;      NG2S1      CG311      CG321     CG2R61
   12    14    15    60	 9 ;      NG2S1      CG311      CG321       HGA2
   12    14    15    61	 9 ;      NG2S1      CG311      CG321       HGA2
   59    14    15    16	 9 ;       HGA1      CG311      CG321     CG2R61
   59    14    15    60	 9 ;       HGA1      CG311      CG321       HGA2
   59    14    15    61	 9 ;       HGA1      CG311      CG321       HGA2
   15    14    22    23	 9 ;      CG321      CG311      CG311      CG324
   15    14    22    30	 9 ;      CG321      CG311      CG311      OG311
   15    14    22    67	 9 ;      CG321      CG311      CG311       HGA1
   12    14    22    23	 9 ;      NG2S1      CG311      CG311      CG324
   12    14    22    30	 9 ;      NG2S1      CG311      CG311      OG311
   12    14    22    67	 9 ;      NG2S1      CG311      CG311       HGA1
   59    14    22    23	 9 ;       HGA1      CG311      CG311      CG324
   59    14    22    30	 9 ;       HGA1      CG311      CG311      OG311
   59    14    22    67	 9 ;       HGA1      CG311      CG311       HGA1
   14    15    16    21	 9 ;      CG311      CG321     CG2R61     CG2R61
   14    15    16    17	 9 ;      CG311      CG321     CG2R61     CG2R61
   60    15    16    21	 9 ;       HGA2      CG321     CG2R61     CG2R61
   60    15    16    17	 9 ;       HGA2      CG321     CG2R61     CG2R61
   61    15    16    21	 9 ;       HGA2      CG321     CG2R61     CG2R61
   61    15    16    17	 9 ;       HGA2      CG321     CG2R61     CG2R61
   17    16    21    20	 9 ;     CG2R61     CG2R61     CG2R61     CG2R61
   17    16    21    66	 9 ;     CG2R61     CG2R61     CG2R61      HGR61
   15    16    21    20	 9 ;      CG321     CG2R61     CG2R61     CG2R61
   15    16    21    66	 9 ;      CG321     CG2R61     CG2R61      HGR61
   21    16    17    18	 9 ;     CG2R61     CG2R61     CG2R61     CG2R61
   21    16    17    62	 9 ;     CG2R61     CG2R61     CG2R61      HGR61
   15    16    17    18	 9 ;      CG321     CG2R61     CG2R61     CG2R61
   15    16    17    62	 9 ;      CG321     CG2R61     CG2R61      HGR61
   16    17    18    19	 9 ;     CG2R61     CG2R61     CG2R61     CG2R61
   16    17    18    63	 9 ;     CG2R61     CG2R61     CG2R61      HGR61
   62    17    18    19	 9 ;      HGR61     CG2R61     CG2R61     CG2R61
   62    17    18    63	 9 ;      HGR61     CG2R61     CG2R61      HGR61
   17    18    19    20	 9 ;     CG2R61     CG2R61     CG2R61     CG2R61
   17    18    19    64	 9 ;     CG2R61     CG2R61     CG2R61      HGR61
   63    18    19    20	 9 ;      HGR61     CG2R61     CG2R61     CG2R61
   63    18    19    64	 9 ;      HGR61     CG2R61     CG2R61      HGR61
   18    19    20    21	 9 ;     CG2R61     CG2R61     CG2R61     CG2R61
   18    19    20    65	 9 ;     CG2R61     CG2R61     CG2R61      HGR61
   64    19    20    21	 9 ;      HGR61     CG2R61     CG2R61     CG2R61
   64    19    20    65	 9 ;      HGR61     CG2R61     CG2R61      HGR61
   19    20    21    16	 9 ;     CG2R61     CG2R61     CG2R61     CG2R61
   19    20    21    66	 9 ;     CG2R61     CG2R61     CG2R61      HGR61
   65    20    21    16	 9 ;      HGR61     CG2R61     CG2R61     CG2R61
   65    20    21    66	 9 ;      HGR61     CG2R61     CG2R61      HGR61
   14    22    23    24	 9 ;      CG311      CG311      CG324      NG3P2
   14    22    23    68	 9 ;      CG311      CG311      CG324       HGA2
   14    22    23    69	 9 ;      CG311      CG311      CG324       HGA2
   30    22    23    24	 9 ;      OG311      CG311      CG324      NG3P2
   30    22    23    68	 9 ;      OG311      CG311      CG324       HGA2
   30    22    23    69	 9 ;      OG311      CG311      CG324       HGA2
   67    22    23    24	 9 ;       HGA1      CG311      CG324      NG3P2
   67    22    23    68	 9 ;       HGA1      CG311      CG324       HGA2
   67    22    23    69	 9 ;       HGA1      CG311      CG324       HGA2
   23    22    30    31	 9 ;      CG324      CG311      OG311       HGP1
   14    22    30    31	 9 ;      CG311      CG311      OG311       HGP1
   67    22    30    31	 9 ;       HGA1      CG311      OG311       HGP1
   22    23    24    26	 9 ;      CG311      CG324      NG3P2       HGP2
   22    23    24    27	 9 ;      CG311      CG324      NG3P2     CG3C31
   22    23    24    25	 9 ;      CG311      CG324      NG3P2       HGP2
   68    23    24    26	 9 ;       HGA2      CG324      NG3P2       HGP2
   68    23    24    27	 9 ;       HGA2      CG324      NG3P2     CG3C31
   68    23    24    25	 9 ;       HGA2      CG324      NG3P2       HGP2
   69    23    24    26	 9 ;       HGA2      CG324      NG3P2       HGP2
   69    23    24    27	 9 ;       HGA2      CG324      NG3P2     CG3C31
   69    23    24    25	 9 ;       HGA2      CG324      NG3P2       HGP2
   26    24    27    29	 9 ;       HGP2      NG3P2     CG3C31     CG3C31
   26    24    27    28	 9 ;       HGP2      NG3P2     CG3C31     CG3C31
   26    24    27    70	 9 ;       HGP2      NG3P2     CG3C31       HGA1
   23    24    27    29	 9 ;      CG324      NG3P2     CG3C31     CG3C31
   23    24    27    28	 9 ;      CG324      NG3P2     CG3C31     CG3C31
   23    24    27    70	 9 ;      CG324      NG3P2     CG3C31       HGA1
   25    24    27    29	 9 ;       HGP2      NG3P2     CG3C31     CG3C31
   25    24    27    28	 9 ;       HGP2      NG3P2     CG3C31     CG3C31
   25    24    27    70	 9 ;       HGP2      NG3P2     CG3C31       HGA1
   24    27    29    28	 9 ;      NG3P2     CG3C31     CG3C31     CG3C31
   24    27    29    73	 9 ;      NG3P2     CG3C31     CG3C31       HGA2
   24    27    29    74	 9 ;      NG3P2     CG3C31     CG3C31       HGA2
   28    27    29    73	 9 ;     CG3C31     CG3C31     CG3C31       HGA2
   28    27    29    74	 9 ;     CG3C31     CG3C31     CG3C31       HGA2
   70    27    29    28	 9 ;       HGA1     CG3C31     CG3C31     CG3C31
   70    27    29    73	 9 ;       HGA1     CG3C31     CG3C31       HGA2
   70    27    29    74	 9 ;       HGA1     CG3C31     CG3C31       HGA2
   24    27    28    29	 9 ;      NG3P2     CG3C31     CG3C31     CG3C31
   24    27    28    71	 9 ;      NG3P2     CG3C31     CG3C31       HGA2
   24    27    28    72	 9 ;      NG3P2     CG3C31     CG3C31       HGA2
   29    27    28    71	 9 ;     CG3C31     CG3C31     CG3C31       HGA2
   29    27    28    72	 9 ;     CG3C31     CG3C31     CG3C31       HGA2
   70    27    28    29	 9 ;       HGA1     CG3C31     CG3C31     CG3C31
   70    27    28    71	 9 ;       HGA1     CG3C31     CG3C31       HGA2
   70    27    28    72	 9 ;       HGA1     CG3C31     CG3C31       HGA2
   27    28    29    73	 9 ;     CG3C31     CG3C31     CG3C31       HGA2
   27    28    29    74	 9 ;     CG3C31     CG3C31     CG3C31       HGA2
   71    28    29    27	 9 ;       HGA2     CG3C31     CG3C31     CG3C31
   71    28    29    73	 9 ;       HGA2     CG3C31     CG3C31       HGA2
   71    28    29    74	 9 ;       HGA2     CG3C31     CG3C31       HGA2
   72    28    29    27	 9 ;       HGA2     CG3C31     CG3C31     CG3C31
   72    28    29    73	 9 ;       HGA2     CG3C31     CG3C31       HGA2
   72    28    29    74	 9 ;       HGA2     CG3C31     CG3C31       HGA2
    1    32    33    34	 9 ;      NG301      CG321      CG2O2      OG2D1
    1    32    33    35	 9 ;      NG301      CG321      CG2O2      OG302
   75    32    33    34	 9 ;       HGA2      CG321      CG2O2      OG2D1
   75    32    33    35	 9 ;       HGA2      CG321      CG2O2      OG302
   76    32    33    34	 9 ;       HGA2      CG321      CG2O2      OG2D1
   76    32    33    35	 9 ;       HGA2      CG321      CG2O2      OG302
   34    33    35    36	 9 ;      OG2D1      CG2O2      OG302      CG331
   32    33    35    36	 9 ;      CG321      CG2O2      OG302      CG331
   33    35    36    77	 9 ;      CG2O2      OG302      CG331       HGA3
   33    35    36    78	 9 ;      CG2O2      OG302      CG331       HGA3
   33    35    36    79	 9 ;      CG2O2      OG302      CG331       HGA3
    7    37    39    40	 9 ;      CG311      CG2O1      NG2S1       HGP1
    7    37    39    41	 9 ;      CG311      CG2O1      NG2S1      OG301
   38    37    39    40	 9 ;      OG2D1      CG2O1      NG2S1       HGP1
   38    37    39    41	 9 ;      OG2D1      CG2O1      NG2S1      OG301
   37    39    41    42	 9 ;      CG2O1      NG2S1      OG301      CG321
   40    39    41    42	 9 ;       HGP1      NG2S1      OG301      CG321
   39    41    42    43	 9 ;      NG2S1      OG301      CG321     CG2R61
   39    41    42    80	 9 ;      NG2S1      OG301      CG321       HGA2
   39    41    42    81	 9 ;      NG2S1      OG301      CG321       HGA2
   41    42    43    48	 9 ;      OG301      CG321     CG2R61     CG2R61
   41    42    43    44	 9 ;      OG301      CG321     CG2R61     CG2R61
   80    42    43    48	 9 ;       HGA2      CG321     CG2R61     CG2R61
   80    42    43    44	 9 ;       HGA2      CG321     CG2R61     CG2R61
   81    42    43    48	 9 ;       HGA2      CG321     CG2R61     CG2R61
   81    42    43    44	 9 ;       HGA2      CG321     CG2R61     CG2R61
   42    43    48    47	 9 ;      CG321     CG2R61     CG2R61     CG2R61
   42    43    48    86	 9 ;      CG321     CG2R61     CG2R61      HGR61
   44    43    48    47	 9 ;     CG2R61     CG2R61     CG2R61     CG2R61
   44    43    48    86	 9 ;     CG2R61     CG2R61     CG2R61      HGR61
   42    43    44    45	 9 ;      CG321     CG2R61     CG2R61     CG2R61
   42    43    44    82	 9 ;      CG321     CG2R61     CG2R61      HGR61
   48    43    44    45	 9 ;     CG2R61     CG2R61     CG2R61     CG2R61
   48    43    44    82	 9 ;     CG2R61     CG2R61     CG2R61      HGR61
   43    44    45    46	 9 ;     CG2R61     CG2R61     CG2R61     CG2R61
   43    44    45    83	 9 ;     CG2R61     CG2R61     CG2R61      HGR61
   82    44    45    46	 9 ;      HGR61     CG2R61     CG2R61     CG2R61
   82    44    45    83	 9 ;      HGR61     CG2R61     CG2R61      HGR61
   44    45    46    47	 9 ;     CG2R61     CG2R61     CG2R61     CG2R61
   44    45    46    84	 9 ;     CG2R61     CG2R61     CG2R61      HGR61
   83    45    46    47	 9 ;      HGR61     CG2R61     CG2R61     CG2R61
   83    45    46    84	 9 ;      HGR61     CG2R61     CG2R61      HGR61
   45    46    47    48	 9 ;     CG2R61     CG2R61     CG2R61     CG2R61
   45    46    47    85	 9 ;     CG2R61     CG2R61     CG2R61      HGR61
   84    46    47    48	 9 ;      HGR61     CG2R61     CG2R61     CG2R61
   84    46    47    85	 9 ;      HGR61     CG2R61     CG2R61      HGR61
   46    47    48    43	 9 ;     CG2R61     CG2R61     CG2R61     CG2R61
   46    47    48    86	 9 ;     CG2R61     CG2R61     CG2R61      HGR61
   85    47    48    43	 9 ;      HGR61     CG2R61     CG2R61     CG2R61
   85    47    48    86	 9 ;      HGR61     CG2R61     CG2R61      HGR61

[ dihedrals ]
;	ai	  aj	ak	  al funct			  c0			c1			  c2			c3
    2     4     3     1	 2
   10     4    12    11	 2
   33    32    34    35	 2
   37     7    39    38	 2

