GRoups of Organic Molecules in ACtion for Science
   88
    1LIG     N1    1  -1.846   0.595  -1.626
    1LIG     C1    2  -1.706   0.565  -1.625
    1LIG     C2    3  -1.613   0.681  -1.598
    1LIG     C3    4  -1.664   0.436  -1.639
    1LIG     C4    5  -1.770   0.324  -1.668
    1LIG     C5    6  -1.755   0.293  -1.818
    1LIG     C6    7  -1.911   0.362  -1.623
    1LIG     C7    8  -1.939   0.492  -1.597
    1LIG     C8    9  -2.067   0.534  -1.524
    1LIG     C9   10  -1.522   0.381  -1.631
    1LIG     O1   11  -1.448   0.394  -1.729
    1LIG     N2   12  -1.470   0.331  -1.512
    1LIG     H1   13  -1.528   0.344  -1.430
    1LIG    C10   14  -1.322   0.327  -1.492
    1LIG    C11   15  -1.268   0.451  -1.413
    1LIG    C12   16  -1.182   0.546  -1.496
    1LIG    C13   17  -1.150   0.673  -1.447
    1LIG    C14   18  -1.069   0.762  -1.520
    1LIG    C15   19  -1.019   0.724  -1.644
    1LIG    C16   20  -1.049   0.597  -1.694
    1LIG    C17   21  -1.130   0.509  -1.622
    1LIG    C18   22  -1.264   0.194  -1.431
    1LIG    C19   23  -1.120   0.157  -1.472
    1LIG     N3   24  -1.124   0.016  -1.526
    1LIG     H2   25  -1.225  -0.007  -1.532
    1LIG     H3   26  -1.092   0.015  -1.623
    1LIG    C20   27  -1.050  -0.084  -1.448
    1LIG    C21   28  -1.111  -0.127  -1.318
    1LIG    C22   29  -0.990  -0.039  -1.318
    1LIG     O2   30  -1.266   0.184  -1.288
    1LIG     H4   31  -1.187   0.133  -1.260
    1LIG    C23   32  -1.899   0.734  -1.647
    1LIG    C24   33  -1.916   0.776  -1.792
    1LIG     O3   34  -1.902   0.698  -1.886
    1LIG     O4   35  -1.938   0.910  -1.805
    1LIG    C25   36  -1.870   0.970  -1.916
    1LIG    C26   37  -2.028   0.264  -1.614
    1LIG     O5   38  -2.111   0.261  -1.705
    1LIG     N4   39  -2.040   0.183  -1.503
    1LIG     H5   40  -1.994   0.209  -1.416
    1LIG     O6   41  -2.172   0.128  -1.484
    1LIG    C27   42  -2.202   0.114  -1.343
    1LIG    C28   43  -2.196  -0.027  -1.285
    1LIG    C29   44  -2.166  -0.058  -1.152
    1LIG    C30   45  -2.164  -0.191  -1.108
    1LIG    C31   46  -2.190  -0.296  -1.195
    1LIG    C32   47  -2.219  -0.269  -1.328
    1LIG    C33   48  -2.222  -0.136  -1.372
    1LIG    HC1   49  -1.512   0.643  -1.582
    1LIG    HC2   50  -1.646   0.734  -1.509
    1LIG    HC3   51  -1.613   0.748  -1.684
    1LIG     HC   52  -1.740   0.235  -1.612
    1LIG    HC4   53  -1.827   0.216  -1.846
    1LIG    HC5   54  -1.654   0.259  -1.838
    1LIG    HC6   55  -1.776   0.384  -1.876
    1LIG    HC7   56  -2.117   0.445  -1.485
    1LIG    HC8   57  -2.042   0.601  -1.442
    1LIG    HC9   58  -2.134   0.585  -1.594
    1LIG   HC10   59  -1.278   0.335  -1.591
    1LIG   HC11   60  -1.353   0.507  -1.374
    1LIG   HC12   61  -1.208   0.415  -1.329
    1LIG   HC13   62  -1.187   0.704  -1.350
    1LIG   HC14   63  -1.047   0.859  -1.480
    1LIG   HC15   64  -0.957   0.792  -1.701
    1LIG   HC16   65  -1.010   0.567  -1.790
    1LIG   HC17   66  -1.152   0.411  -1.662
    1LIG   HC18   67  -1.327   0.114  -1.469
    1LIG   HC19   68  -1.085   0.226  -1.550
    1LIG   HC20   69  -1.054   0.163  -1.386
    1LIG   HC21   70  -0.995  -0.159  -1.504
    1LIG   HC22   71  -1.103  -0.231  -1.286
    1LIG   HC23   72  -1.205  -0.078  -1.292
    1LIG   HC24   73  -0.893  -0.079  -1.286
    1LIG   HC25   74  -1.008   0.065  -1.292
    1LIG   HC26   75  -1.831   0.804  -1.599
    1LIG   HC27   76  -1.996   0.742  -1.598
    1LIG   HC28   77  -1.893   1.076  -1.920
    1LIG   HC29   78  -1.762   0.956  -1.904
    1LIG   HC30   79  -1.902   0.922  -2.009
    1LIG   HC31   80  -2.303   0.152  -1.327
    1LIG   HC32   81  -2.132   0.177  -1.287
    1LIG   HC33   82  -2.144   0.022  -1.082
    1LIG   HC34   83  -2.141  -0.212  -1.004
    1LIG   HC35   84  -2.188  -0.398  -1.160
    1LIG   HC36   85  -2.239  -0.349  -1.397
    1LIG   HC37   86  -2.244  -0.116  -1.476
    1LIG    H44   87  -1.885   0.344  -1.519
    1LIG    H45   88  -1.987   0.504  -1.694
   0.00000   0.00000   0.00000
