GROup of MAchos and Cynical Suckers
  104
    1LIG     C1    1  -1.523   0.381  -1.574
    1LIG     O1    2  -1.508   0.495  -1.530
    1LIG     N1    3  -1.632   0.303  -1.542
    1LIG     H1    4  -1.643   0.210  -1.577
    1LIG     C2    5  -1.730   0.343  -1.440
    1LIG     C3    6  -1.702   0.262  -1.312
    1LIG     C4    7  -1.705   0.350  -1.185
    1LIG     C5    8  -1.644   0.488  -1.210
    1LIG     C6    9  -1.847   0.365  -1.130
    1LIG     C7   10  -1.877   0.329  -1.489
    1LIG     C8   11  -1.948   0.465  -1.494
    1LIG     C9   12  -1.854   0.586  -1.510
    1LIG    C10   13  -1.917   0.712  -1.451
    1LIG    C11   14  -1.802   0.611  -1.653
    1LIG     O2   15  -1.852   0.549  -1.747
    1LIG     N2   16  -1.700   0.702  -1.672
    1LIG     H2   17  -1.648   0.735  -1.591
    1LIG    C12   18  -1.630   0.719  -1.802
    1LIG    C13   19  -1.692   0.824  -1.900
    1LIG    C14   20  -1.780   0.764  -2.010
    1LIG    C15   21  -1.768   0.936  -1.829
    1LIG    C16   22  -1.480   0.754  -1.776
    1LIG     O3   23  -1.447   0.842  -1.698
    1LIG     N3   24  -1.388   0.682  -1.851
    1LIG     H3   25  -1.420   0.600  -1.902
    1LIG    C17   26  -1.243   0.701  -1.839
    1LIG    C18   27  -1.179   0.594  -1.752
    1LIG    C19   28  -1.177   0.703  -1.977
    1LIG     O4   29  -1.880   0.266  -1.618
    1LIG     H4   30  -1.819   0.190  -1.614
    1LIG    C20   31  -1.422   0.325  -1.668
    1LIG    C21   32  -1.445   0.340  -1.806
    1LIG    C22   33  -1.364   0.278  -1.902
    1LIG    C23   34  -1.253   0.203  -1.860
    1LIG    C24   35  -1.223   0.197  -1.722
    1LIG    C25   36  -1.307   0.257  -1.627
    1LIG    C26   37  -1.406   0.296  -2.044
    1LIG     O5   38  -1.521   0.269  -2.076
    1LIG     N4   39  -1.316   0.350  -2.134
    1LIG     H5   40  -1.226   0.384  -2.102
    1LIG    C27   41  -1.365   0.400  -2.263
    1LIG    C28   42  -1.287   0.343  -2.382
    1LIG    C29   43  -1.369   0.553  -2.264
    1LIG    C30   44  -1.273   0.625  -2.336
    1LIG    C31   45  -1.279   0.765  -2.343
    1LIG    C32   46  -1.381   0.834  -2.278
    1LIG    C33   47  -1.476   0.763  -2.205
    1LIG    C34   48  -1.471   0.624  -2.198
    1LIG     N5   49  -1.106   0.133  -1.670
    1LIG    C35   50  -1.044   0.196  -1.552
    1LIG      S   51  -1.107  -0.037  -1.684
    1LIG     O6   52  -1.050  -0.071  -1.812
    1LIG     O7   53  -1.242  -0.082  -1.649
    1LIG    C36   54  -0.995  -0.093  -1.558
    1LIG     H6   55  -1.718   0.448  -1.419
    1LIG     H7   56  -1.605   0.216  -1.320
    1LIG     H8   57  -1.779   0.188  -1.303
    1LIG     H9   58  -1.645   0.300  -1.111
    1LIG    H10   59  -1.703   0.540  -1.283
    1LIG    H11   60  -1.544   0.477  -1.246
    1LIG    H12   61  -1.644   0.544  -1.119
    1LIG    H13   62  -1.908   0.415  -1.203
    1LIG    H14   63  -1.845   0.422  -1.040
    1LIG    H15   64  -1.888   0.268  -1.110
    1LIG    H16   65  -1.930   0.267  -1.419
    1LIG    H17   66  -2.016   0.465  -1.576
    1LIG    H18   67  -1.997   0.478  -1.399
    1LIG    H19   68  -1.765   0.560  -1.455
    1LIG    H20   69  -2.005   0.737  -1.507
    1LIG    H21   70  -1.848   0.793  -1.456
    1LIG    H22   71  -1.944   0.693  -1.349
    1LIG    H23   72  -1.642   0.625  -1.852
    1LIG    H24   73  -1.606   0.865  -1.947
    1LIG    H25   74  -1.868   0.721  -1.966
    1LIG    H26   75  -1.726   0.688  -2.062
    1LIG    H27   76  -1.809   0.841  -2.078
    1LIG    H28   77  -1.855   0.896  -1.781
    1LIG    H29   78  -1.797   1.010  -1.901
    1LIG    H30   79  -1.704   0.982  -1.755
    1LIG    H31   80  -1.228   0.797  -1.793
    1LIG    H32   81  -1.193   0.498  -1.798
    1LIG    H33   82  -1.224   0.595  -1.655
    1LIG    H34   83  -1.074   0.614  -1.743
    1LIG    H35   84  -1.191   0.608  -2.025
    1LIG    H36   85  -1.072   0.721  -1.966
    1LIG    H37   86  -1.220   0.780  -2.037
    1LIG    H38   87  -1.525   0.398  -1.837
    1LIG    H39   88  -1.195   0.152  -1.928
    1LIG    H40   89  -1.285   0.250  -1.527
    1LIG    H41   90  -1.466   0.366  -2.275
    1LIG    H42   91  -1.185   0.375  -2.375
    1LIG    H43   92  -1.329   0.379  -2.473
    1LIG    H44   93  -1.291   0.236  -2.379
    1LIG    H45   94  -1.196   0.575  -2.384
    1LIG    H46   95  -1.207   0.817  -2.396
    1LIG    H47   96  -1.387   0.936  -2.284
    1LIG    H48   97  -1.551   0.814  -2.156
    1LIG    H49   98  -1.542   0.572  -2.144
    1LIG    H50   99  -1.052   0.303  -1.560
    1LIG    H51  100  -0.941   0.169  -1.547
    1LIG    H52  101  -1.094   0.163  -1.463
    1LIG    H53  102  -0.896  -0.061  -1.582
    1LIG    H54  103  -0.998  -0.199  -1.553
    1LIG    H55  104  -1.024  -0.052  -1.463
   0.00000   0.00000   0.00000
