; Created by cgenff_charmm2gmx.py

[ moleculetype ]
; Name			   nrexcl
LIG				 3

[ atoms ]
;	 nr		  type	resnr residue  atom   cgnr	   charge		mass  typeB    chargeB		massB
; residue	 1 LIG rtp LIG q	qsum
     1      CG2O1      1    LIG     C1      1      0.302     12.011   ;
     2      OG2D1      1    LIG     O1      2     -0.463     15.999   ;
     3      NG2S1      1    LIG     N1      3     -0.242     14.007   ;
     4       HGP1      1    LIG     H1      4      0.262      1.008   ;
     5      CG311      1    LIG     C2      5     -0.029     12.011   ;
     6      CG321      1    LIG     C3      6     -0.101     12.011   ;
     7      CG311      1    LIG     C4      7     -0.109     12.011   ;
     8      CG331      1    LIG     C5      8     -0.268     12.011   ;
     9      CG331      1    LIG     C6      9     -0.268     12.011   ;
    10      CG311      1    LIG     C7     10      0.119     12.011   ;
    11      CG321      1    LIG     C8     11     -0.187     12.011   ;
    12      CG311      1    LIG     C9     12     -0.032     12.011   ;
    13      CG331      1    LIG    C10     13     -0.266     12.011   ;
    14      CG2O1      1    LIG    C11     14      0.483     12.011   ;
    15      OG2D1      1    LIG     O2     15     -0.510     15.999   ;
    16      NG2S1      1    LIG     N2     16     -0.435     14.007   ;
    17       HGP1      1    LIG     H2     17      0.269      1.008   ;
    18      CG311      1    LIG    C12     18      0.070     12.011   ;
    19      CG311      1    LIG    C13     19     -0.078     12.011   ;
    20      CG331      1    LIG    C14     20     -0.269     12.011   ;
    21      CG331      1    LIG    C15     21     -0.269     12.011   ;
    22      CG2O1      1    LIG    C16     22      0.542     12.011   ;
    23      OG2D1      1    LIG     O3     23     -0.510     15.999   ;
    24      NG2S1      1    LIG     N3     24     -0.525     14.007   ;
    25       HGP1      1    LIG     H3     25      0.316      1.008   ;
    26      CG311      1    LIG    C17     26      0.080     12.011   ;
    27      CG331      1    LIG    C18     27     -0.272     12.011   ;
    28      CG331      1    LIG    C19     28     -0.272     12.011   ;
    29      OG311      1    LIG     O4     29     -0.648     15.999   ;
    30       HGP1      1    LIG     H4     30      0.421      1.008   ;
    31     CG2R61      1    LIG    C20     31     -0.101     12.011   ;
    32     CG2R61      1    LIG    C21     32     -0.004     12.011   ;
    33     CG2R61      1    LIG    C22     33     -0.101     12.011   ;
    34     CG2R61      1    LIG    C23     34     -0.064     12.011   ;
    35     CG2R61      1    LIG    C24     35      0.138     12.011   ;
    36     CG2R61      1    LIG    C25     36     -0.064     12.011   ;
    37      CG2O1      1    LIG    C26     37      0.320     12.011   ;
    38      OG2D1      1    LIG     O5     38     -0.463     15.999   ;
    39      NG2S1      1    LIG     N4     39     -0.366     14.007   ;
    40       HGP1      1    LIG     H5     40      0.314      1.008   ;
    41      CG311      1    LIG    C27     41      0.138     12.011   ;
    42      CG331      1    LIG    C28     42     -0.265     12.011   ;
    43     CG2R61      1    LIG    C29     43     -0.111     12.011   ;
    44     CG2R61      1    LIG    C30     44     -0.086     12.011   ;
    45     CG2R61      1    LIG    C31     45     -0.114     12.011   ;
    46     CG2R61      1    LIG    C32     46     -0.116     12.011   ;
    47     CG2R61      1    LIG    C33     47     -0.114     12.011   ;
    48     CG2R61      1    LIG    C34     48     -0.086     12.011   ;
    49      NG301      1    LIG     N5     49     -0.228     14.007   ;
    50      CG331      1    LIG    C35     50     -0.103     12.011   ;
    51      SG3O2      1    LIG      S     51      0.397     32.060   ;
    52      OG2P1      1    LIG     O6     52     -0.388     15.999   ;
    53      OG2P1      1    LIG     O7     53     -0.388     15.999   ;
    54      CG331      1    LIG    C36     54      0.036     12.011   ;
    55       HGA1      1    LIG     H6     55      0.090      1.008   ;
    56       HGA2      1    LIG     H7     56      0.090      1.008   ;
    57       HGA2      1    LIG     H8     57      0.090      1.008   ;
    58       HGA1      1    LIG     H9     58      0.090      1.008   ;
    59       HGA3      1    LIG    H10     59      0.090      1.008   ;
    60       HGA3      1    LIG    H11     60      0.090      1.008   ;
    61       HGA3      1    LIG    H12     61      0.090      1.008   ;
    62       HGA3      1    LIG    H13     62      0.090      1.008   ;
    63       HGA3      1    LIG    H14     63      0.090      1.008   ;
    64       HGA3      1    LIG    H15     64      0.090      1.008   ;
    65       HGA1      1    LIG    H16     65      0.090      1.008   ;
    66       HGA2      1    LIG    H17     66      0.090      1.008   ;
    67       HGA2      1    LIG    H18     67      0.090      1.008   ;
    68       HGA1      1    LIG    H19     68      0.090      1.008   ;
    69       HGA3      1    LIG    H20     69      0.090      1.008   ;
    70       HGA3      1    LIG    H21     70      0.090      1.008   ;
    71       HGA3      1    LIG    H22     71      0.090      1.008   ;
    72       HGA1      1    LIG    H23     72      0.090      1.008   ;
    73       HGA1      1    LIG    H24     73      0.090      1.008   ;
    74       HGA3      1    LIG    H25     74      0.090      1.008   ;
    75       HGA3      1    LIG    H26     75      0.090      1.008   ;
    76       HGA3      1    LIG    H27     76      0.090      1.008   ;
    77       HGA3      1    LIG    H28     77      0.090      1.008   ;
    78       HGA3      1    LIG    H29     78      0.090      1.008   ;
    79       HGA3      1    LIG    H30     79      0.090      1.008   ;
    80       HGA1      1    LIG    H31     80      0.090      1.008   ;
    81       HGA3      1    LIG    H32     81      0.090      1.008   ;
    82       HGA3      1    LIG    H33     82      0.090      1.008   ;
    83       HGA3      1    LIG    H34     83      0.090      1.008   ;
    84       HGA3      1    LIG    H35     84      0.090      1.008   ;
    85       HGA3      1    LIG    H36     85      0.090      1.008   ;
    86       HGA3      1    LIG    H37     86      0.090      1.008   ;
    87      HGR61      1    LIG    H38     87      0.116      1.008   ;
    88      HGR61      1    LIG    H39     88      0.116      1.008   ;
    89      HGR61      1    LIG    H40     89      0.116      1.008   ;
    90       HGA1      1    LIG    H41     90      0.090      1.008   ;
    91       HGA3      1    LIG    H42     91      0.090      1.008   ;
    92       HGA3      1    LIG    H43     92      0.090      1.008   ;
    93       HGA3      1    LIG    H44     93      0.090      1.008   ;
    94      HGR61      1    LIG    H45     94      0.116      1.008   ;
    95      HGR61      1    LIG    H46     95      0.116      1.008   ;
    96      HGR61      1    LIG    H47     96      0.116      1.008   ;
    97      HGR61      1    LIG    H48     97      0.116      1.008   ;
    98      HGR61      1    LIG    H49     98      0.116      1.008   ;
    99       HGA3      1    LIG    H50     99      0.090      1.008   ;
   100       HGA3      1    LIG    H51    100      0.090      1.008   ;
   101       HGA3      1    LIG    H52    101      0.090      1.008   ;
   102       HGA3      1    LIG    H53    102      0.090      1.008   ;
   103       HGA3      1    LIG    H54    103      0.090      1.008   ;
   104       HGA3      1    LIG    H55    104      0.090      1.008   ;

[ bonds ]
;	ai	  aj funct			  c0			c1			  c2			c3
    1    31	 1 ;       CG2O1     CG2R61
    1     3	 1 ;       CG2O1      NG2S1
    1     2	 1 ;       CG2O1      OG2D1
    3     4	 1 ;       NG2S1       HGP1
    3     5	 1 ;       NG2S1      CG311
    5    10	 1 ;       CG311      CG311
    5     6	 1 ;       CG311      CG321
    5    55	 1 ;       CG311       HGA1
    6     7	 1 ;       CG321      CG311
    6    56	 1 ;       CG321       HGA2
    6    57	 1 ;       CG321       HGA2
    7     8	 1 ;       CG311      CG331
    7     9	 1 ;       CG311      CG331
    7    58	 1 ;       CG311       HGA1
    8    59	 1 ;       CG331       HGA3
    8    60	 1 ;       CG331       HGA3
    8    61	 1 ;       CG331       HGA3
    9    62	 1 ;       CG331       HGA3
    9    63	 1 ;       CG331       HGA3
    9    64	 1 ;       CG331       HGA3
   10    29	 1 ;       CG311      OG311
   10    11	 1 ;       CG311      CG321
   10    65	 1 ;       CG311       HGA1
   11    12	 1 ;       CG321      CG311
   11    66	 1 ;       CG321       HGA2
   11    67	 1 ;       CG321       HGA2
   12    14	 1 ;       CG311      CG2O1
   12    13	 1 ;       CG311      CG331
   12    68	 1 ;       CG311       HGA1
   13    69	 1 ;       CG331       HGA3
   13    70	 1 ;       CG331       HGA3
   13    71	 1 ;       CG331       HGA3
   14    15	 1 ;       CG2O1      OG2D1
   14    16	 1 ;       CG2O1      NG2S1
   16    18	 1 ;       NG2S1      CG311
   16    17	 1 ;       NG2S1       HGP1
   18    19	 1 ;       CG311      CG311
   18    22	 1 ;       CG311      CG2O1
   18    72	 1 ;       CG311       HGA1
   19    20	 1 ;       CG311      CG331
   19    21	 1 ;       CG311      CG331
   19    73	 1 ;       CG311       HGA1
   20    74	 1 ;       CG331       HGA3
   20    75	 1 ;       CG331       HGA3
   20    76	 1 ;       CG331       HGA3
   21    77	 1 ;       CG331       HGA3
   21    78	 1 ;       CG331       HGA3
   21    79	 1 ;       CG331       HGA3
   22    24	 1 ;       CG2O1      NG2S1
   22    23	 1 ;       CG2O1      OG2D1
   24    25	 1 ;       NG2S1       HGP1
   24    26	 1 ;       NG2S1      CG311
   26    28	 1 ;       CG311      CG331
   26    27	 1 ;       CG311      CG331
   26    80	 1 ;       CG311       HGA1
   27    81	 1 ;       CG331       HGA3
   27    82	 1 ;       CG331       HGA3
   27    83	 1 ;       CG331       HGA3
   28    84	 1 ;       CG331       HGA3
   28    85	 1 ;       CG331       HGA3
   28    86	 1 ;       CG331       HGA3
   29    30	 1 ;       OG311       HGP1
   31    32	 1 ;      CG2R61     CG2R61
   31    36	 1 ;      CG2R61     CG2R61
   32    33	 1 ;      CG2R61     CG2R61
   32    87	 1 ;      CG2R61      HGR61
   33    37	 1 ;      CG2R61      CG2O1
   33    34	 1 ;      CG2R61     CG2R61
   34    35	 1 ;      CG2R61     CG2R61
   34    88	 1 ;      CG2R61      HGR61
   35    49	 1 ;      CG2R61      NG301
   35    36	 1 ;      CG2R61     CG2R61
   36    89	 1 ;      CG2R61      HGR61
   37    39	 1 ;       CG2O1      NG2S1
   37    38	 1 ;       CG2O1      OG2D1
   39    41	 1 ;       NG2S1      CG311
   39    40	 1 ;       NG2S1       HGP1
   41    42	 1 ;       CG311      CG331
   41    43	 1 ;       CG311     CG2R61
   41    90	 1 ;       CG311       HGA1
   42    91	 1 ;       CG331       HGA3
   42    92	 1 ;       CG331       HGA3
   42    93	 1 ;       CG331       HGA3
   43    44	 1 ;      CG2R61     CG2R61
   43    48	 1 ;      CG2R61     CG2R61
   44    45	 1 ;      CG2R61     CG2R61
   44    94	 1 ;      CG2R61      HGR61
   45    46	 1 ;      CG2R61     CG2R61
   45    95	 1 ;      CG2R61      HGR61
   46    47	 1 ;      CG2R61     CG2R61
   46    96	 1 ;      CG2R61      HGR61
   47    48	 1 ;      CG2R61     CG2R61
   47    97	 1 ;      CG2R61      HGR61
   48    98	 1 ;      CG2R61      HGR61
   49    51	 1 ;       NG301      SG3O2
   49    50	 1 ;       NG301      CG331
   50    99	 1 ;       CG331       HGA3
   50   100	 1 ;       CG331       HGA3
   50   101	 1 ;       CG331       HGA3
   51    52	 1 ;       SG3O2      OG2P1
   51    53	 1 ;       SG3O2      OG2P1
   51    54	 1 ;       SG3O2      CG331
   54   102	 1 ;       CG331       HGA3
   54   103	 1 ;       CG331       HGA3
   54   104	 1 ;       CG331       HGA3

[ pairs ]
;	ai	  aj funct			  c0			c1			  c2			c3
    1    10	 1
    1     6	 1
    1    55	 1
    1    33	 1
    1    87	 1
    1    35	 1
    1    89	 1
    2    32	 1
    2    36	 1
    2     4	 1
    2     5	 1
    3    32	 1
    3    36	 1
    3    29	 1
    3    11	 1
    3    65	 1
    3     7	 1
    3    56	 1
    3    57	 1
    4    31	 1
    4    10	 1
    4     6	 1
    4    55	 1
    5    31	 1
    5     8	 1
    5     9	 1
    5    58	 1
    5    30	 1
    5    12	 1
    5    66	 1
    5    67	 1
    6    29	 1
    6    11	 1
    6    65	 1
    6    59	 1
    6    60	 1
    6    61	 1
    6    62	 1
    6    63	 1
    6    64	 1
    7    10	 1
    7    55	 1
    8    56	 1
    8    57	 1
    8    62	 1
    8    63	 1
    8    64	 1
    9    56	 1
    9    57	 1
    9    59	 1
    9    60	 1
    9    61	 1
   10    56	 1
   10    57	 1
   10    14	 1
   10    13	 1
   10    68	 1
   11    55	 1
   11    30	 1
   11    15	 1
   11    16	 1
   11    69	 1
   11    70	 1
   11    71	 1
   12    29	 1
   12    65	 1
   12    18	 1
   12    17	 1
   13    66	 1
   13    67	 1
   13    15	 1
   13    16	 1
   14    66	 1
   14    67	 1
   14    69	 1
   14    70	 1
   14    71	 1
   14    19	 1
   14    22	 1
   14    72	 1
   15    68	 1
   15    18	 1
   15    17	 1
   16    68	 1
   16    20	 1
   16    21	 1
   16    73	 1
   16    24	 1
   16    23	 1
   17    19	 1
   17    22	 1
   17    72	 1
   18    74	 1
   18    75	 1
   18    76	 1
   18    77	 1
   18    78	 1
   18    79	 1
   18    25	 1
   18    26	 1
   19    24	 1
   19    23	 1
   20    22	 1
   20    72	 1
   20    77	 1
   20    78	 1
   20    79	 1
   21    22	 1
   21    72	 1
   21    74	 1
   21    75	 1
   21    76	 1
   22    73	 1
   22    28	 1
   22    27	 1
   22    80	 1
   23    72	 1
   23    25	 1
   23    26	 1
   24    72	 1
   24    84	 1
   24    85	 1
   24    86	 1
   24    81	 1
   24    82	 1
   24    83	 1
   25    28	 1
   25    27	 1
   25    80	 1
   27    84	 1
   27    85	 1
   27    86	 1
   28    81	 1
   28    82	 1
   28    83	 1
   29    55	 1
   29    66	 1
   29    67	 1
   30    65	 1
   31    37	 1
   31    34	 1
   31    49	 1
   32    35	 1
   32    89	 1
   32    39	 1
   32    38	 1
   32    88	 1
   33    36	 1
   33    49	 1
   33    41	 1
   33    40	 1
   34    87	 1
   34    39	 1
   34    38	 1
   34    51	 1
   34    50	 1
   34    89	 1
   35    37	 1
   35    52	 1
   35    53	 1
   35    54	 1
   35    99	 1
   35   100	 1
   35   101	 1
   36    87	 1
   36    88	 1
   36    51	 1
   36    50	 1
   37    87	 1
   37    88	 1
   37    42	 1
   37    43	 1
   37    90	 1
   38    41	 1
   38    40	 1
   39    91	 1
   39    92	 1
   39    93	 1
   39    44	 1
   39    48	 1
   40    42	 1
   40    43	 1
   40    90	 1
   41    45	 1
   41    94	 1
   41    47	 1
   41    98	 1
   42    44	 1
   42    48	 1
   43    91	 1
   43    92	 1
   43    93	 1
   43    46	 1
   43    95	 1
   43    97	 1
   44    90	 1
   44    47	 1
   44    98	 1
   44    96	 1
   45    48	 1
   45    97	 1
   46    94	 1
   46    98	 1
   47    95	 1
   48    90	 1
   48    94	 1
   48    96	 1
   49    88	 1
   49    89	 1
   49   102	 1
   49   103	 1
   49   104	 1
   50    52	 1
   50    53	 1
   50    54	 1
   51    99	 1
   51   100	 1
   51   101	 1
   52   102	 1
   52   103	 1
   52   104	 1
   53   102	 1
   53   103	 1
   53   104	 1
   55    65	 1
   55    56	 1
   55    57	 1
   56    58	 1
   57    58	 1
   58    59	 1
   58    60	 1
   58    61	 1
   58    62	 1
   58    63	 1
   58    64	 1
   65    66	 1
   65    67	 1
   66    68	 1
   67    68	 1
   68    69	 1
   68    70	 1
   68    71	 1
   72    73	 1
   73    74	 1
   73    75	 1
   73    76	 1
   73    77	 1
   73    78	 1
   73    79	 1
   80    84	 1
   80    85	 1
   80    86	 1
   80    81	 1
   80    82	 1
   80    83	 1
   90    91	 1
   90    92	 1
   90    93	 1
   94    95	 1
   95    96	 1
   96    97	 1
   97    98	 1

[ angles ]
;	ai	  aj	ak funct			c0			  c1			c2			  c3
   31     1     3	5 ;     CG2R61      CG2O1      NG2S1
   31     1     2	5 ;     CG2R61      CG2O1      OG2D1
    3     1     2	5 ;      NG2S1      CG2O1      OG2D1
    4     3     1	5 ;       HGP1      NG2S1      CG2O1
    4     3     5	5 ;       HGP1      NG2S1      CG311
    1     3     5	5 ;      CG2O1      NG2S1      CG311
    3     5    10	5 ;      NG2S1      CG311      CG311
    3     5     6	5 ;      NG2S1      CG311      CG321
    3     5    55	5 ;      NG2S1      CG311       HGA1
   10     5     6	5 ;      CG311      CG311      CG321
   10     5    55	5 ;      CG311      CG311       HGA1
    6     5    55	5 ;      CG321      CG311       HGA1
    5     6     7	5 ;      CG311      CG321      CG311
    5     6    56	5 ;      CG311      CG321       HGA2
    5     6    57	5 ;      CG311      CG321       HGA2
    7     6    56	5 ;      CG311      CG321       HGA2
    7     6    57	5 ;      CG311      CG321       HGA2
   56     6    57	5 ;       HGA2      CG321       HGA2
    6     7     8	5 ;      CG321      CG311      CG331
    6     7     9	5 ;      CG321      CG311      CG331
    6     7    58	5 ;      CG321      CG311       HGA1
    8     7     9	5 ;      CG331      CG311      CG331
    8     7    58	5 ;      CG331      CG311       HGA1
    9     7    58	5 ;      CG331      CG311       HGA1
    7     8    59	5 ;      CG311      CG331       HGA3
    7     8    60	5 ;      CG311      CG331       HGA3
    7     8    61	5 ;      CG311      CG331       HGA3
   59     8    60	5 ;       HGA3      CG331       HGA3
   59     8    61	5 ;       HGA3      CG331       HGA3
   60     8    61	5 ;       HGA3      CG331       HGA3
    7     9    62	5 ;      CG311      CG331       HGA3
    7     9    63	5 ;      CG311      CG331       HGA3
    7     9    64	5 ;      CG311      CG331       HGA3
   62     9    63	5 ;       HGA3      CG331       HGA3
   62     9    64	5 ;       HGA3      CG331       HGA3
   63     9    64	5 ;       HGA3      CG331       HGA3
   29    10    11	5 ;      OG311      CG311      CG321
   29    10     5	5 ;      OG311      CG311      CG311
   29    10    65	5 ;      OG311      CG311       HGA1
   11    10     5	5 ;      CG321      CG311      CG311
   11    10    65	5 ;      CG321      CG311       HGA1
    5    10    65	5 ;      CG311      CG311       HGA1
   12    11    10	5 ;      CG311      CG321      CG311
   12    11    66	5 ;      CG311      CG321       HGA2
   12    11    67	5 ;      CG311      CG321       HGA2
   10    11    66	5 ;      CG311      CG321       HGA2
   10    11    67	5 ;      CG311      CG321       HGA2
   66    11    67	5 ;       HGA2      CG321       HGA2
   14    12    11	5 ;      CG2O1      CG311      CG321
   14    12    13	5 ;      CG2O1      CG311      CG331
   14    12    68	5 ;      CG2O1      CG311       HGA1
   11    12    13	5 ;      CG321      CG311      CG331
   11    12    68	5 ;      CG321      CG311       HGA1
   13    12    68	5 ;      CG331      CG311       HGA1
   12    13    69	5 ;      CG311      CG331       HGA3
   12    13    70	5 ;      CG311      CG331       HGA3
   12    13    71	5 ;      CG311      CG331       HGA3
   69    13    70	5 ;       HGA3      CG331       HGA3
   69    13    71	5 ;       HGA3      CG331       HGA3
   70    13    71	5 ;       HGA3      CG331       HGA3
   15    14    16	5 ;      OG2D1      CG2O1      NG2S1
   15    14    12	5 ;      OG2D1      CG2O1      CG311
   16    14    12	5 ;      NG2S1      CG2O1      CG311
   18    16    14	5 ;      CG311      NG2S1      CG2O1
   18    16    17	5 ;      CG311      NG2S1       HGP1
   14    16    17	5 ;      CG2O1      NG2S1       HGP1
   19    18    22	5 ;      CG311      CG311      CG2O1
   19    18    16	5 ;      CG311      CG311      NG2S1
   19    18    72	5 ;      CG311      CG311       HGA1
   22    18    16	5 ;      CG2O1      CG311      NG2S1
   22    18    72	5 ;      CG2O1      CG311       HGA1
   16    18    72	5 ;      NG2S1      CG311       HGA1
   20    19    21	5 ;      CG331      CG311      CG331
   20    19    18	5 ;      CG331      CG311      CG311
   20    19    73	5 ;      CG331      CG311       HGA1
   21    19    18	5 ;      CG331      CG311      CG311
   21    19    73	5 ;      CG331      CG311       HGA1
   18    19    73	5 ;      CG311      CG311       HGA1
   19    20    74	5 ;      CG311      CG331       HGA3
   19    20    75	5 ;      CG311      CG331       HGA3
   19    20    76	5 ;      CG311      CG331       HGA3
   74    20    75	5 ;       HGA3      CG331       HGA3
   74    20    76	5 ;       HGA3      CG331       HGA3
   75    20    76	5 ;       HGA3      CG331       HGA3
   19    21    77	5 ;      CG311      CG331       HGA3
   19    21    78	5 ;      CG311      CG331       HGA3
   19    21    79	5 ;      CG311      CG331       HGA3
   77    21    78	5 ;       HGA3      CG331       HGA3
   77    21    79	5 ;       HGA3      CG331       HGA3
   78    21    79	5 ;       HGA3      CG331       HGA3
   24    22    18	5 ;      NG2S1      CG2O1      CG311
   24    22    23	5 ;      NG2S1      CG2O1      OG2D1
   18    22    23	5 ;      CG311      CG2O1      OG2D1
   25    24    26	5 ;       HGP1      NG2S1      CG311
   25    24    22	5 ;       HGP1      NG2S1      CG2O1
   26    24    22	5 ;      CG311      NG2S1      CG2O1
   28    26    24	5 ;      CG331      CG311      NG2S1
   28    26    27	5 ;      CG331      CG311      CG331
   28    26    80	5 ;      CG331      CG311       HGA1
   24    26    27	5 ;      NG2S1      CG311      CG331
   24    26    80	5 ;      NG2S1      CG311       HGA1
   27    26    80	5 ;      CG331      CG311       HGA1
   26    27    81	5 ;      CG311      CG331       HGA3
   26    27    82	5 ;      CG311      CG331       HGA3
   26    27    83	5 ;      CG311      CG331       HGA3
   81    27    82	5 ;       HGA3      CG331       HGA3
   81    27    83	5 ;       HGA3      CG331       HGA3
   82    27    83	5 ;       HGA3      CG331       HGA3
   26    28    84	5 ;      CG311      CG331       HGA3
   26    28    85	5 ;      CG311      CG331       HGA3
   26    28    86	5 ;      CG311      CG331       HGA3
   84    28    85	5 ;       HGA3      CG331       HGA3
   84    28    86	5 ;       HGA3      CG331       HGA3
   85    28    86	5 ;       HGA3      CG331       HGA3
   30    29    10	5 ;       HGP1      OG311      CG311
   32    31    36	5 ;     CG2R61     CG2R61     CG2R61
   32    31     1	5 ;     CG2R61     CG2R61      CG2O1
   36    31     1	5 ;     CG2R61     CG2R61      CG2O1
   33    32    31	5 ;     CG2R61     CG2R61     CG2R61
   33    32    87	5 ;     CG2R61     CG2R61      HGR61
   31    32    87	5 ;     CG2R61     CG2R61      HGR61
   37    33    34	5 ;      CG2O1     CG2R61     CG2R61
   37    33    32	5 ;      CG2O1     CG2R61     CG2R61
   34    33    32	5 ;     CG2R61     CG2R61     CG2R61
   33    34    35	5 ;     CG2R61     CG2R61     CG2R61
   33    34    88	5 ;     CG2R61     CG2R61      HGR61
   35    34    88	5 ;     CG2R61     CG2R61      HGR61
   34    35    49	5 ;     CG2R61     CG2R61      NG301
   34    35    36	5 ;     CG2R61     CG2R61     CG2R61
   49    35    36	5 ;      NG301     CG2R61     CG2R61
   35    36    31	5 ;     CG2R61     CG2R61     CG2R61
   35    36    89	5 ;     CG2R61     CG2R61      HGR61
   31    36    89	5 ;     CG2R61     CG2R61      HGR61
   39    37    38	5 ;      NG2S1      CG2O1      OG2D1
   39    37    33	5 ;      NG2S1      CG2O1     CG2R61
   38    37    33	5 ;      OG2D1      CG2O1     CG2R61
   41    39    40	5 ;      CG311      NG2S1       HGP1
   41    39    37	5 ;      CG311      NG2S1      CG2O1
   40    39    37	5 ;       HGP1      NG2S1      CG2O1
   42    41    43	5 ;      CG331      CG311     CG2R61
   42    41    39	5 ;      CG331      CG311      NG2S1
   42    41    90	5 ;      CG331      CG311       HGA1
   43    41    39	5 ;     CG2R61      CG311      NG2S1
   43    41    90	5 ;     CG2R61      CG311       HGA1
   39    41    90	5 ;      NG2S1      CG311       HGA1
   41    42    91	5 ;      CG311      CG331       HGA3
   41    42    92	5 ;      CG311      CG331       HGA3
   41    42    93	5 ;      CG311      CG331       HGA3
   91    42    92	5 ;       HGA3      CG331       HGA3
   91    42    93	5 ;       HGA3      CG331       HGA3
   92    42    93	5 ;       HGA3      CG331       HGA3
   44    43    41	5 ;     CG2R61     CG2R61      CG311
   44    43    48	5 ;     CG2R61     CG2R61     CG2R61
   41    43    48	5 ;      CG311     CG2R61     CG2R61
   45    44    43	5 ;     CG2R61     CG2R61     CG2R61
   45    44    94	5 ;     CG2R61     CG2R61      HGR61
   43    44    94	5 ;     CG2R61     CG2R61      HGR61
   44    45    46	5 ;     CG2R61     CG2R61     CG2R61
   44    45    95	5 ;     CG2R61     CG2R61      HGR61
   46    45    95	5 ;     CG2R61     CG2R61      HGR61
   45    46    47	5 ;     CG2R61     CG2R61     CG2R61
   45    46    96	5 ;     CG2R61     CG2R61      HGR61
   47    46    96	5 ;     CG2R61     CG2R61      HGR61
   46    47    48	5 ;     CG2R61     CG2R61     CG2R61
   46    47    97	5 ;     CG2R61     CG2R61      HGR61
   48    47    97	5 ;     CG2R61     CG2R61      HGR61
   43    48    47	5 ;     CG2R61     CG2R61     CG2R61
   43    48    98	5 ;     CG2R61     CG2R61      HGR61
   47    48    98	5 ;     CG2R61     CG2R61      HGR61
   35    49    51	5 ;     CG2R61      NG301      SG3O2
   35    49    50	5 ;     CG2R61      NG301      CG331
   51    49    50	5 ;      SG3O2      NG301      CG331
   49    50    99	5 ;      NG301      CG331       HGA3
   49    50   100	5 ;      NG301      CG331       HGA3
   49    50   101	5 ;      NG301      CG331       HGA3
   99    50   100	5 ;       HGA3      CG331       HGA3
   99    50   101	5 ;       HGA3      CG331       HGA3
  100    50   101	5 ;       HGA3      CG331       HGA3
   52    51    49	5 ;      OG2P1      SG3O2      NG301
   52    51    53	5 ;      OG2P1      SG3O2      OG2P1
   52    51    54	5 ;      OG2P1      SG3O2      CG331
   49    51    53	5 ;      NG301      SG3O2      OG2P1
   49    51    54	5 ;      NG301      SG3O2      CG331
   53    51    54	5 ;      OG2P1      SG3O2      CG331
   51    54   102	5 ;      SG3O2      CG331       HGA3
   51    54   103	5 ;      SG3O2      CG331       HGA3
   51    54   104	5 ;      SG3O2      CG331       HGA3
  102    54   103	5 ;       HGA3      CG331       HGA3
  102    54   104	5 ;       HGA3      CG331       HGA3
  103    54   104	5 ;       HGA3      CG331       HGA3

[ dihedrals ]
;	ai	  aj	ak	  al funct			  c0			c1			  c2			c3			  c4			c5
    3     1    31    32	 9 ;      NG2S1      CG2O1     CG2R61     CG2R61
    3     1    31    36	 9 ;      NG2S1      CG2O1     CG2R61     CG2R61
    2     1    31    32	 9 ;      OG2D1      CG2O1     CG2R61     CG2R61
    2     1    31    36	 9 ;      OG2D1      CG2O1     CG2R61     CG2R61
   31     1     3     4	 9 ;     CG2R61      CG2O1      NG2S1       HGP1
   31     1     3     5	 9 ;     CG2R61      CG2O1      NG2S1      CG311
    2     1     3     4	 9 ;      OG2D1      CG2O1      NG2S1       HGP1
    2     1     3     5	 9 ;      OG2D1      CG2O1      NG2S1      CG311
    4     3     5    10	 9 ;       HGP1      NG2S1      CG311      CG311
    4     3     5     6	 9 ;       HGP1      NG2S1      CG311      CG321
    4     3     5    55	 9 ;       HGP1      NG2S1      CG311       HGA1
    1     3     5    10	 9 ;      CG2O1      NG2S1      CG311      CG311
    1     3     5     6	 9 ;      CG2O1      NG2S1      CG311      CG321
    1     3     5    55	 9 ;      CG2O1      NG2S1      CG311       HGA1
    3     5    10    29	 9 ;      NG2S1      CG311      CG311      OG311
    3     5    10    11	 9 ;      NG2S1      CG311      CG311      CG321
    3     5    10    65	 9 ;      NG2S1      CG311      CG311       HGA1
    6     5    10    29	 9 ;      CG321      CG311      CG311      OG311
    6     5    10    11	 9 ;      CG321      CG311      CG311      CG321
    6     5    10    65	 9 ;      CG321      CG311      CG311       HGA1
   55     5    10    29	 9 ;       HGA1      CG311      CG311      OG311
   55     5    10    11	 9 ;       HGA1      CG311      CG311      CG321
   55     5    10    65	 9 ;       HGA1      CG311      CG311       HGA1
    3     5     6     7	 9 ;      NG2S1      CG311      CG321      CG311
    3     5     6    56	 9 ;      NG2S1      CG311      CG321       HGA2
    3     5     6    57	 9 ;      NG2S1      CG311      CG321       HGA2
   10     5     6     7	 9 ;      CG311      CG311      CG321      CG311
   10     5     6    56	 9 ;      CG311      CG311      CG321       HGA2
   10     5     6    57	 9 ;      CG311      CG311      CG321       HGA2
   55     5     6     7	 9 ;       HGA1      CG311      CG321      CG311
   55     5     6    56	 9 ;       HGA1      CG311      CG321       HGA2
   55     5     6    57	 9 ;       HGA1      CG311      CG321       HGA2
    5     6     7     8	 9 ;      CG311      CG321      CG311      CG331
    5     6     7     9	 9 ;      CG311      CG321      CG311      CG331
    5     6     7    58	 9 ;      CG311      CG321      CG311       HGA1
   56     6     7     8	 9 ;       HGA2      CG321      CG311      CG331
   56     6     7     9	 9 ;       HGA2      CG321      CG311      CG331
   56     6     7    58	 9 ;       HGA2      CG321      CG311       HGA1
   57     6     7     8	 9 ;       HGA2      CG321      CG311      CG331
   57     6     7     9	 9 ;       HGA2      CG321      CG311      CG331
   57     6     7    58	 9 ;       HGA2      CG321      CG311       HGA1
    6     7     8    59	 9 ;      CG321      CG311      CG331       HGA3
    6     7     8    60	 9 ;      CG321      CG311      CG331       HGA3
    6     7     8    61	 9 ;      CG321      CG311      CG331       HGA3
    9     7     8    59	 9 ;      CG331      CG311      CG331       HGA3
    9     7     8    60	 9 ;      CG331      CG311      CG331       HGA3
    9     7     8    61	 9 ;      CG331      CG311      CG331       HGA3
   58     7     8    59	 9 ;       HGA1      CG311      CG331       HGA3
   58     7     8    60	 9 ;       HGA1      CG311      CG331       HGA3
   58     7     8    61	 9 ;       HGA1      CG311      CG331       HGA3
    6     7     9    62	 9 ;      CG321      CG311      CG331       HGA3
    6     7     9    63	 9 ;      CG321      CG311      CG331       HGA3
    6     7     9    64	 9 ;      CG321      CG311      CG331       HGA3
    8     7     9    62	 9 ;      CG331      CG311      CG331       HGA3
    8     7     9    63	 9 ;      CG331      CG311      CG331       HGA3
    8     7     9    64	 9 ;      CG331      CG311      CG331       HGA3
   58     7     9    62	 9 ;       HGA1      CG311      CG331       HGA3
   58     7     9    63	 9 ;       HGA1      CG311      CG331       HGA3
   58     7     9    64	 9 ;       HGA1      CG311      CG331       HGA3
   11    10    29    30	 9 ;      CG321      CG311      OG311       HGP1
    5    10    29    30	 9 ;      CG311      CG311      OG311       HGP1
   65    10    29    30	 9 ;       HGA1      CG311      OG311       HGP1
   29    10    11    12	 9 ;      OG311      CG311      CG321      CG311
   29    10    11    66	 9 ;      OG311      CG311      CG321       HGA2
   29    10    11    67	 9 ;      OG311      CG311      CG321       HGA2
    5    10    11    12	 9 ;      CG311      CG311      CG321      CG311
    5    10    11    66	 9 ;      CG311      CG311      CG321       HGA2
    5    10    11    67	 9 ;      CG311      CG311      CG321       HGA2
   65    10    11    12	 9 ;       HGA1      CG311      CG321      CG311
   65    10    11    66	 9 ;       HGA1      CG311      CG321       HGA2
   65    10    11    67	 9 ;       HGA1      CG311      CG321       HGA2
   10    11    12    14	 9 ;      CG311      CG321      CG311      CG2O1
   10    11    12    13	 9 ;      CG311      CG321      CG311      CG331
   10    11    12    68	 9 ;      CG311      CG321      CG311       HGA1
   66    11    12    14	 9 ;       HGA2      CG321      CG311      CG2O1
   66    11    12    13	 9 ;       HGA2      CG321      CG311      CG331
   66    11    12    68	 9 ;       HGA2      CG321      CG311       HGA1
   67    11    12    14	 9 ;       HGA2      CG321      CG311      CG2O1
   67    11    12    13	 9 ;       HGA2      CG321      CG311      CG331
   67    11    12    68	 9 ;       HGA2      CG321      CG311       HGA1
   11    12    14    15	 9 ;      CG321      CG311      CG2O1      OG2D1
   11    12    14    16	 9 ;      CG321      CG311      CG2O1      NG2S1
   13    12    14    15	 9 ;      CG331      CG311      CG2O1      OG2D1
   13    12    14    16	 9 ;      CG331      CG311      CG2O1      NG2S1
   68    12    14    15	 9 ;       HGA1      CG311      CG2O1      OG2D1
   68    12    14    16	 9 ;       HGA1      CG311      CG2O1      NG2S1
   14    12    13    69	 9 ;      CG2O1      CG311      CG331       HGA3
   14    12    13    70	 9 ;      CG2O1      CG311      CG331       HGA3
   14    12    13    71	 9 ;      CG2O1      CG311      CG331       HGA3
   11    12    13    69	 9 ;      CG321      CG311      CG331       HGA3
   11    12    13    70	 9 ;      CG321      CG311      CG331       HGA3
   11    12    13    71	 9 ;      CG321      CG311      CG331       HGA3
   68    12    13    69	 9 ;       HGA1      CG311      CG331       HGA3
   68    12    13    70	 9 ;       HGA1      CG311      CG331       HGA3
   68    12    13    71	 9 ;       HGA1      CG311      CG331       HGA3
   15    14    16    18	 9 ;      OG2D1      CG2O1      NG2S1      CG311
   15    14    16    17	 9 ;      OG2D1      CG2O1      NG2S1       HGP1
   12    14    16    18	 9 ;      CG311      CG2O1      NG2S1      CG311
   12    14    16    17	 9 ;      CG311      CG2O1      NG2S1       HGP1
   14    16    18    19	 9 ;      CG2O1      NG2S1      CG311      CG311
   14    16    18    22	 9 ;      CG2O1      NG2S1      CG311      CG2O1
   14    16    18    72	 9 ;      CG2O1      NG2S1      CG311       HGA1
   17    16    18    19	 9 ;       HGP1      NG2S1      CG311      CG311
   17    16    18    22	 9 ;       HGP1      NG2S1      CG311      CG2O1
   17    16    18    72	 9 ;       HGP1      NG2S1      CG311       HGA1
   22    18    19    20	 9 ;      CG2O1      CG311      CG311      CG331
   22    18    19    21	 9 ;      CG2O1      CG311      CG311      CG331
   22    18    19    73	 9 ;      CG2O1      CG311      CG311       HGA1
   16    18    19    20	 9 ;      NG2S1      CG311      CG311      CG331
   16    18    19    21	 9 ;      NG2S1      CG311      CG311      CG331
   16    18    19    73	 9 ;      NG2S1      CG311      CG311       HGA1
   72    18    19    20	 9 ;       HGA1      CG311      CG311      CG331
   72    18    19    21	 9 ;       HGA1      CG311      CG311      CG331
   72    18    19    73	 9 ;       HGA1      CG311      CG311       HGA1
   19    18    22    24	 9 ;      CG311      CG311      CG2O1      NG2S1
   19    18    22    23	 9 ;      CG311      CG311      CG2O1      OG2D1
   16    18    22    24	 9 ;      NG2S1      CG311      CG2O1      NG2S1
   16    18    22    23	 9 ;      NG2S1      CG311      CG2O1      OG2D1
   72    18    22    24	 9 ;       HGA1      CG311      CG2O1      NG2S1
   72    18    22    23	 9 ;       HGA1      CG311      CG2O1      OG2D1
   21    19    20    74	 9 ;      CG331      CG311      CG331       HGA3
   21    19    20    75	 9 ;      CG331      CG311      CG331       HGA3
   21    19    20    76	 9 ;      CG331      CG311      CG331       HGA3
   18    19    20    74	 9 ;      CG311      CG311      CG331       HGA3
   18    19    20    75	 9 ;      CG311      CG311      CG331       HGA3
   18    19    20    76	 9 ;      CG311      CG311      CG331       HGA3
   73    19    20    74	 9 ;       HGA1      CG311      CG331       HGA3
   73    19    20    75	 9 ;       HGA1      CG311      CG331       HGA3
   73    19    20    76	 9 ;       HGA1      CG311      CG331       HGA3
   20    19    21    77	 9 ;      CG331      CG311      CG331       HGA3
   20    19    21    78	 9 ;      CG331      CG311      CG331       HGA3
   20    19    21    79	 9 ;      CG331      CG311      CG331       HGA3
   18    19    21    77	 9 ;      CG311      CG311      CG331       HGA3
   18    19    21    78	 9 ;      CG311      CG311      CG331       HGA3
   18    19    21    79	 9 ;      CG311      CG311      CG331       HGA3
   73    19    21    77	 9 ;       HGA1      CG311      CG331       HGA3
   73    19    21    78	 9 ;       HGA1      CG311      CG331       HGA3
   73    19    21    79	 9 ;       HGA1      CG311      CG331       HGA3
   18    22    24    25	 9 ;      CG311      CG2O1      NG2S1       HGP1
   18    22    24    26	 9 ;      CG311      CG2O1      NG2S1      CG311
   23    22    24    25	 9 ;      OG2D1      CG2O1      NG2S1       HGP1
   23    22    24    26	 9 ;      OG2D1      CG2O1      NG2S1      CG311
   25    24    26    28	 9 ;       HGP1      NG2S1      CG311      CG331
   25    24    26    27	 9 ;       HGP1      NG2S1      CG311      CG331
   25    24    26    80	 9 ;       HGP1      NG2S1      CG311       HGA1
   22    24    26    28	 9 ;      CG2O1      NG2S1      CG311      CG331
   22    24    26    27	 9 ;      CG2O1      NG2S1      CG311      CG331
   22    24    26    80	 9 ;      CG2O1      NG2S1      CG311       HGA1
   24    26    28    84	 9 ;      NG2S1      CG311      CG331       HGA3
   24    26    28    85	 9 ;      NG2S1      CG311      CG331       HGA3
   24    26    28    86	 9 ;      NG2S1      CG311      CG331       HGA3
   27    26    28    84	 9 ;      CG331      CG311      CG331       HGA3
   27    26    28    85	 9 ;      CG331      CG311      CG331       HGA3
   27    26    28    86	 9 ;      CG331      CG311      CG331       HGA3
   80    26    28    84	 9 ;       HGA1      CG311      CG331       HGA3
   80    26    28    85	 9 ;       HGA1      CG311      CG331       HGA3
   80    26    28    86	 9 ;       HGA1      CG311      CG331       HGA3
   28    26    27    81	 9 ;      CG331      CG311      CG331       HGA3
   28    26    27    82	 9 ;      CG331      CG311      CG331       HGA3
   28    26    27    83	 9 ;      CG331      CG311      CG331       HGA3
   24    26    27    81	 9 ;      NG2S1      CG311      CG331       HGA3
   24    26    27    82	 9 ;      NG2S1      CG311      CG331       HGA3
   24    26    27    83	 9 ;      NG2S1      CG311      CG331       HGA3
   80    26    27    81	 9 ;       HGA1      CG311      CG331       HGA3
   80    26    27    82	 9 ;       HGA1      CG311      CG331       HGA3
   80    26    27    83	 9 ;       HGA1      CG311      CG331       HGA3
   36    31    32    33	 9 ;     CG2R61     CG2R61     CG2R61     CG2R61
   36    31    32    87	 9 ;     CG2R61     CG2R61     CG2R61      HGR61
    1    31    32    33	 9 ;      CG2O1     CG2R61     CG2R61     CG2R61
    1    31    32    87	 9 ;      CG2O1     CG2R61     CG2R61      HGR61
   32    31    36    35	 9 ;     CG2R61     CG2R61     CG2R61     CG2R61
   32    31    36    89	 9 ;     CG2R61     CG2R61     CG2R61      HGR61
    1    31    36    35	 9 ;      CG2O1     CG2R61     CG2R61     CG2R61
    1    31    36    89	 9 ;      CG2O1     CG2R61     CG2R61      HGR61
   31    32    33    37	 9 ;     CG2R61     CG2R61     CG2R61      CG2O1
   31    32    33    34	 9 ;     CG2R61     CG2R61     CG2R61     CG2R61
   87    32    33    37	 9 ;      HGR61     CG2R61     CG2R61      CG2O1
   87    32    33    34	 9 ;      HGR61     CG2R61     CG2R61     CG2R61
   34    33    37    39	 9 ;     CG2R61     CG2R61      CG2O1      NG2S1
   34    33    37    38	 9 ;     CG2R61     CG2R61      CG2O1      OG2D1
   32    33    37    39	 9 ;     CG2R61     CG2R61      CG2O1      NG2S1
   32    33    37    38	 9 ;     CG2R61     CG2R61      CG2O1      OG2D1
   37    33    34    35	 9 ;      CG2O1     CG2R61     CG2R61     CG2R61
   37    33    34    88	 9 ;      CG2O1     CG2R61     CG2R61      HGR61
   32    33    34    35	 9 ;     CG2R61     CG2R61     CG2R61     CG2R61
   32    33    34    88	 9 ;     CG2R61     CG2R61     CG2R61      HGR61
   33    34    35    49	 9 ;     CG2R61     CG2R61     CG2R61      NG301
   33    34    35    36	 9 ;     CG2R61     CG2R61     CG2R61     CG2R61
   88    34    35    49	 9 ;      HGR61     CG2R61     CG2R61      NG301
   88    34    35    36	 9 ;      HGR61     CG2R61     CG2R61     CG2R61
   34    35    49    51	 9 ;     CG2R61     CG2R61      NG301      SG3O2
   34    35    49    50	 9 ;     CG2R61     CG2R61      NG301      CG331
   36    35    49    51	 9 ;     CG2R61     CG2R61      NG301      SG3O2
   36    35    49    50	 9 ;     CG2R61     CG2R61      NG301      CG331
   34    35    36    31	 9 ;     CG2R61     CG2R61     CG2R61     CG2R61
   34    35    36    89	 9 ;     CG2R61     CG2R61     CG2R61      HGR61
   49    35    36    31	 9 ;      NG301     CG2R61     CG2R61     CG2R61
   49    35    36    89	 9 ;      NG301     CG2R61     CG2R61      HGR61
   38    37    39    41	 9 ;      OG2D1      CG2O1      NG2S1      CG311
   38    37    39    40	 9 ;      OG2D1      CG2O1      NG2S1       HGP1
   33    37    39    41	 9 ;     CG2R61      CG2O1      NG2S1      CG311
   33    37    39    40	 9 ;     CG2R61      CG2O1      NG2S1       HGP1
   40    39    41    42	 9 ;       HGP1      NG2S1      CG311      CG331
   40    39    41    43	 9 ;       HGP1      NG2S1      CG311     CG2R61
   40    39    41    90	 9 ;       HGP1      NG2S1      CG311       HGA1
   37    39    41    42	 9 ;      CG2O1      NG2S1      CG311      CG331
   37    39    41    43	 9 ;      CG2O1      NG2S1      CG311     CG2R61
   37    39    41    90	 9 ;      CG2O1      NG2S1      CG311       HGA1
   43    41    42    91	 9 ;     CG2R61      CG311      CG331       HGA3
   43    41    42    92	 9 ;     CG2R61      CG311      CG331       HGA3
   43    41    42    93	 9 ;     CG2R61      CG311      CG331       HGA3
   39    41    42    91	 9 ;      NG2S1      CG311      CG331       HGA3
   39    41    42    92	 9 ;      NG2S1      CG311      CG331       HGA3
   39    41    42    93	 9 ;      NG2S1      CG311      CG331       HGA3
   90    41    42    91	 9 ;       HGA1      CG311      CG331       HGA3
   90    41    42    92	 9 ;       HGA1      CG311      CG331       HGA3
   90    41    42    93	 9 ;       HGA1      CG311      CG331       HGA3
   42    41    43    44	 9 ;      CG331      CG311     CG2R61     CG2R61
   42    41    43    48	 9 ;      CG331      CG311     CG2R61     CG2R61
   39    41    43    44	 9 ;      NG2S1      CG311     CG2R61     CG2R61
   39    41    43    48	 9 ;      NG2S1      CG311     CG2R61     CG2R61
   90    41    43    44	 9 ;       HGA1      CG311     CG2R61     CG2R61
   90    41    43    48	 9 ;       HGA1      CG311     CG2R61     CG2R61
   41    43    44    45	 9 ;      CG311     CG2R61     CG2R61     CG2R61
   41    43    44    94	 9 ;      CG311     CG2R61     CG2R61      HGR61
   48    43    44    45	 9 ;     CG2R61     CG2R61     CG2R61     CG2R61
   48    43    44    94	 9 ;     CG2R61     CG2R61     CG2R61      HGR61
   44    43    48    47	 9 ;     CG2R61     CG2R61     CG2R61     CG2R61
   44    43    48    98	 9 ;     CG2R61     CG2R61     CG2R61      HGR61
   41    43    48    47	 9 ;      CG311     CG2R61     CG2R61     CG2R61
   41    43    48    98	 9 ;      CG311     CG2R61     CG2R61      HGR61
   43    44    45    46	 9 ;     CG2R61     CG2R61     CG2R61     CG2R61
   43    44    45    95	 9 ;     CG2R61     CG2R61     CG2R61      HGR61
   94    44    45    46	 9 ;      HGR61     CG2R61     CG2R61     CG2R61
   94    44    45    95	 9 ;      HGR61     CG2R61     CG2R61      HGR61
   44    45    46    47	 9 ;     CG2R61     CG2R61     CG2R61     CG2R61
   44    45    46    96	 9 ;     CG2R61     CG2R61     CG2R61      HGR61
   95    45    46    47	 9 ;      HGR61     CG2R61     CG2R61     CG2R61
   95    45    46    96	 9 ;      HGR61     CG2R61     CG2R61      HGR61
   45    46    47    48	 9 ;     CG2R61     CG2R61     CG2R61     CG2R61
   45    46    47    97	 9 ;     CG2R61     CG2R61     CG2R61      HGR61
   96    46    47    48	 9 ;      HGR61     CG2R61     CG2R61     CG2R61
   96    46    47    97	 9 ;      HGR61     CG2R61     CG2R61      HGR61
   46    47    48    43	 9 ;     CG2R61     CG2R61     CG2R61     CG2R61
   46    47    48    98	 9 ;     CG2R61     CG2R61     CG2R61      HGR61
   97    47    48    43	 9 ;      HGR61     CG2R61     CG2R61     CG2R61
   97    47    48    98	 9 ;      HGR61     CG2R61     CG2R61      HGR61
   35    49    51    52	 9 ;     CG2R61      NG301      SG3O2      OG2P1
   35    49    51    53	 9 ;     CG2R61      NG301      SG3O2      OG2P1
   35    49    51    54	 9 ;     CG2R61      NG301      SG3O2      CG331
   50    49    51    52	 9 ;      CG331      NG301      SG3O2      OG2P1
   50    49    51    53	 9 ;      CG331      NG301      SG3O2      OG2P1
   50    49    51    54	 9 ;      CG331      NG301      SG3O2      CG331
   35    49    50    99	 9 ;     CG2R61      NG301      CG331       HGA3
   35    49    50   100	 9 ;     CG2R61      NG301      CG331       HGA3
   35    49    50   101	 9 ;     CG2R61      NG301      CG331       HGA3
   51    49    50    99	 9 ;      SG3O2      NG301      CG331       HGA3
   51    49    50   100	 9 ;      SG3O2      NG301      CG331       HGA3
   51    49    50   101	 9 ;      SG3O2      NG301      CG331       HGA3
   52    51    54   102	 9 ;      OG2P1      SG3O2      CG331       HGA3
   52    51    54   103	 9 ;      OG2P1      SG3O2      CG331       HGA3
   52    51    54   104	 9 ;      OG2P1      SG3O2      CG331       HGA3
   49    51    54   102	 9 ;      NG301      SG3O2      CG331       HGA3
   49    51    54   103	 9 ;      NG301      SG3O2      CG331       HGA3
   49    51    54   104	 9 ;      NG301      SG3O2      CG331       HGA3
   53    51    54   102	 9 ;      OG2P1      SG3O2      CG331       HGA3
   53    51    54   103	 9 ;      OG2P1      SG3O2      CG331       HGA3
   53    51    54   104	 9 ;      OG2P1      SG3O2      CG331       HGA3

[ dihedrals ]
;	ai	  aj	ak	  al funct			  c0			c1			  c2			c3
    1    31     3     2	 2
   14    12    16    15	 2
   22    18    24    23	 2
   37    33    39    38	 2

