; Created by cgenff_charmm2gmx.py

[ moleculetype ]
; Name			   nrexcl
LIG				 3

[ atoms ]
;	 nr		  type	resnr residue  atom   cgnr	   charge		mass  typeB    chargeB		massB
; residue	 1 LIG rtp LIG q	qsum
     1     CG2R51      1    LIG     C1      1      0.128     12.011   ;
     2     CG2R51      1    LIG     C2      2     -0.172     12.011   ;
     3     SG2R50      1    LIG      S      3     -0.062     32.060   ;
     4     CG2R51      1    LIG     C3      4     -0.395     12.011   ;
     5     CG2R51      1    LIG     C4      5      0.118     12.011   ;
     6      CG1T1      1    LIG     C5      6     -0.016     12.011   ;
     7      CG1T2      1    LIG     C6      7     -0.410     12.011   ;
     8      CG321      1    LIG     C7      8     -0.207     12.011   ;
     9      CG311      1    LIG     CA      9     -0.001     12.011   ;
    10      NG311      1    LIG     N1     10     -0.806     14.007   ;
    11     HGPAM1      1    LIG      H     11      0.362      1.008   ;
    12      CG311      1    LIG     C8     12      0.346     12.011   ;
    13      NG311      1    LIG     N2     13     -0.864     14.007   ;
    14      CG301      1    LIG     C9     14      0.375     12.011   ;
    15     HGPAM1      1    LIG     HN     15      0.350      1.008   ;
    16      CG321      1    LIG    C10     16     -0.230     12.011   ;
    17      CG331      1    LIG    C11     17     -0.295     12.011   ;
    18      CG331      1    LIG    C12     18     -0.295     12.011   ;
    19     CG2R61      1    LIG    C13     19      0.075     12.011   ;
    20     CG2R61      1    LIG    C14     20     -0.121     12.011   ;
    21     CG2R61      1    LIG    C15     21     -0.052     12.011   ;
    22     CG2R61      1    LIG    C16     22      0.048     12.011   ;
    23      CLGR1      1    LIG     CL     23     -0.200     35.453   ;
    24     CG2R61      1    LIG    C17     24     -0.099     12.011   ;
    25     CG2R61      1    LIG    C18     25     -0.108     12.011   ;
    26      CG2O3      1    LIG    C19     26      0.898     12.011   ;
    27      OG2D2      1    LIG      O     27     -0.832     15.999   ;
    28      OG2D2      1    LIG    OXT     28     -0.832     15.999   ;
    29      HGR52      1    LIG     HC     29      0.195      1.008   ;
    30      HGR52      1    LIG    HC1     30      0.270      1.008   ;
    31     HGPAM1      1    LIG    HC2     31      0.291      1.008   ;
    32       HGA2      1    LIG    HC3     32      0.090      1.008   ;
    33       HGA2      1    LIG    HC4     33      0.090      1.008   ;
    34       HGA1      1    LIG    HC5     34      0.090      1.008   ;
    35       HGA2      1    LIG    HC6     35      0.090      1.008   ;
    36       HGA2      1    LIG    HC7     36      0.090      1.008   ;
    37       HGA3      1    LIG    HC8     37      0.090      1.008   ;
    38       HGA3      1    LIG    HC9     38      0.090      1.008   ;
    39       HGA3      1    LIG   HC10     39      0.090      1.008   ;
    40       HGA3      1    LIG   HC11     40      0.090      1.008   ;
    41       HGA3      1    LIG   HC12     41      0.090      1.008   ;
    42       HGA3      1    LIG   HC13     42      0.090      1.008   ;
    43      HGR62      1    LIG   HC14     43      0.145      1.008   ;
    44      HGR62      1    LIG   HC15     44      0.150      1.008   ;
    45      HGR61      1    LIG   HC16     45      0.116      1.008   ;
    46       HGA1      1    LIG    H20     46      0.090      1.008   ;
    47        LPH      1    LIG    LP1     47      0.050      0.000   ;

[ bonds ]
;	ai	  aj funct			  c0			c1			  c2			c3
    1     2	 1 ;      CG2R51     CG2R51
    1     8	 1 ;      CG2R51      CG321
    1     5	 1 ;      CG2R51     CG2R51
    2     3	 1 ;      CG2R51     SG2R50
    2    29	 1 ;      CG2R51      HGR52
    3     4	 1 ;      SG2R50     CG2R51
    4     5	 1 ;      CG2R51     CG2R51
    4    30	 1 ;      CG2R51      HGR52
    5     6	 1 ;      CG2R51      CG1T1
    6     7	 1 ;       CG1T1      CG1T2
    7    31	 1 ;       CG1T2     HGPAM1
    8     9	 1 ;       CG321      CG311
    8    32	 1 ;       CG321       HGA2
    8    33	 1 ;       CG321       HGA2
    9    10	 1 ;       CG311      NG311
    9    26	 1 ;       CG311      CG2O3
    9    34	 1 ;       CG311       HGA1
   10    12	 1 ;       NG311      CG311
   10    11	 1 ;       NG311     HGPAM1
   12    13	 1 ;       CG311      NG311
   12    21	 1 ;       CG311     CG2R61
   12    46	 1 ;       CG311       HGA1
   13    14	 1 ;       NG311      CG301
   13    15	 1 ;       NG311     HGPAM1
   14    18	 1 ;       CG301      CG331
   14    17	 1 ;       CG301      CG331
   14    16	 1 ;       CG301      CG321
   16    19	 1 ;       CG321     CG2R61
   16    35	 1 ;       CG321       HGA2
   16    36	 1 ;       CG321       HGA2
   17    37	 1 ;       CG331       HGA3
   17    38	 1 ;       CG331       HGA3
   17    39	 1 ;       CG331       HGA3
   18    40	 1 ;       CG331       HGA3
   18    41	 1 ;       CG331       HGA3
   18    42	 1 ;       CG331       HGA3
   19    20	 1 ;      CG2R61     CG2R61
   19    21	 1 ;      CG2R61     CG2R61
   20    22	 1 ;      CG2R61     CG2R61
   20    43	 1 ;      CG2R61      HGR62
   21    25	 1 ;      CG2R61     CG2R61
   22    23	 1 ;      CG2R61      CLGR1
   22    24	 1 ;      CG2R61     CG2R61
   24    25	 1 ;      CG2R61     CG2R61
   24    44	 1 ;      CG2R61      HGR62
   25    45	 1 ;      CG2R61      HGR61
   26    28	 1 ;       CG2O3      OG2D2
   26    27	 1 ;       CG2O3      OG2D2

[ pairs ]
;	ai	  aj funct			  c0			c1			  c2			c3
    1    30	 1
    1     7	 1
    1    10	 1
    1    26	 1
    1    34	 1
    2     9	 1
    2    32	 1
    2    33	 1
    2     6	 1
    2    30	 1
    3     8	 1
    3     6	 1
    4     8	 1
    4    29	 1
    4     7	 1
    5    29	 1
    5     9	 1
    5    32	 1
    5    33	 1
    5    31	 1
    6     8	 1
    6    30	 1
    8    29	 1
    8    12	 1
    8    11	 1
    8    28	 1
    8    27	 1
    9    13	 1
    9    21	 1
    9    46	 1
   10    32	 1
   10    33	 1
   10    28	 1
   10    27	 1
   10    14	 1
   10    15	 1
   10    19	 1
   10    25	 1
   11    26	 1
   11    34	 1
   11    13	 1
   11    21	 1
   11    46	 1
   12    26	 1
   12    34	 1
   12    18	 1
   12    17	 1
   12    16	 1
   12    20	 1
   12    24	 1
   12    45	 1
   13    19	 1
   13    25	 1
   13    40	 1
   13    41	 1
   13    42	 1
   13    37	 1
   13    38	 1
   13    39	 1
   13    35	 1
   13    36	 1
   14    21	 1
   14    46	 1
   14    20	 1
   15    21	 1
   15    46	 1
   15    18	 1
   15    17	 1
   15    16	 1
   16    40	 1
   16    41	 1
   16    42	 1
   16    37	 1
   16    38	 1
   16    39	 1
   16    22	 1
   16    43	 1
   16    25	 1
   17    40	 1
   17    41	 1
   17    42	 1
   17    19	 1
   17    35	 1
   17    36	 1
   18    37	 1
   18    38	 1
   18    39	 1
   18    19	 1
   18    35	 1
   18    36	 1
   19    46	 1
   19    23	 1
   47    19	 1
   19    24	 1
   19    45	 1
   20    35	 1
   20    36	 1
   20    25	 1
   20    44	 1
   21    35	 1
   21    36	 1
   21    22	 1
   21    43	 1
   21    44	 1
   22    45	 1
   23    43	 1
   47    43	 1
   23    25	 1
   47    25	 1
   23    44	 1
   47    44	 1
   24    43	 1
   25    46	 1
   26    32	 1
   26    33	 1
   27    34	 1
   28    34	 1
   32    34	 1
   33    34	 1
   44    45	 1

[ angles ]
;	ai	  aj	ak funct			c0			  c1			c2			  c3
    2     1     8	5 ;     CG2R51     CG2R51      CG321
    2     1     5	5 ;     CG2R51     CG2R51     CG2R51
    8     1     5	5 ;      CG321     CG2R51     CG2R51
    3     2     1	5 ;     SG2R50     CG2R51     CG2R51
    3     2    29	5 ;     SG2R50     CG2R51      HGR52
    1     2    29	5 ;     CG2R51     CG2R51      HGR52
    2     3     4	5 ;     CG2R51     SG2R50     CG2R51
    3     4     5	5 ;     SG2R50     CG2R51     CG2R51
    3     4    30	5 ;     SG2R50     CG2R51      HGR52
    5     4    30	5 ;     CG2R51     CG2R51      HGR52
    1     5     4	5 ;     CG2R51     CG2R51     CG2R51
    1     5     6	5 ;     CG2R51     CG2R51      CG1T1
    4     5     6	5 ;     CG2R51     CG2R51      CG1T1
    5     6     7	5 ;     CG2R51      CG1T1      CG1T2
    6     7    31	5 ;      CG1T1      CG1T2     HGPAM1
    9     8     1	5 ;      CG311      CG321     CG2R51
    9     8    32	5 ;      CG311      CG321       HGA2
    9     8    33	5 ;      CG311      CG321       HGA2
    1     8    32	5 ;     CG2R51      CG321       HGA2
    1     8    33	5 ;     CG2R51      CG321       HGA2
   32     8    33	5 ;       HGA2      CG321       HGA2
   10     9     8	5 ;      NG311      CG311      CG321
   10     9    26	5 ;      NG311      CG311      CG2O3
   10     9    34	5 ;      NG311      CG311       HGA1
    8     9    26	5 ;      CG321      CG311      CG2O3
    8     9    34	5 ;      CG321      CG311       HGA1
   26     9    34	5 ;      CG2O3      CG311       HGA1
   12    10     9	5 ;      CG311      NG311      CG311
   12    10    11	5 ;      CG311      NG311     HGPAM1
    9    10    11	5 ;      CG311      NG311     HGPAM1
   13    12    21	5 ;      NG311      CG311     CG2R61
   13    12    10	5 ;      NG311      CG311      NG311
   13    12    46	5 ;      NG311      CG311       HGA1
   21    12    10	5 ;     CG2R61      CG311      NG311
   21    12    46	5 ;     CG2R61      CG311       HGA1
   10    12    46	5 ;      NG311      CG311       HGA1
   14    13    15	5 ;      CG301      NG311     HGPAM1
   14    13    12	5 ;      CG301      NG311      CG311
   15    13    12	5 ;     HGPAM1      NG311      CG311
   18    14    17	5 ;      CG331      CG301      CG331
   18    14    16	5 ;      CG331      CG301      CG321
   18    14    13	5 ;      CG331      CG301      NG311
   17    14    16	5 ;      CG331      CG301      CG321
   17    14    13	5 ;      CG331      CG301      NG311
   16    14    13	5 ;      CG321      CG301      NG311
   14    16    19	5 ;      CG301      CG321     CG2R61
   14    16    35	5 ;      CG301      CG321       HGA2
   14    16    36	5 ;      CG301      CG321       HGA2
   19    16    35	5 ;     CG2R61      CG321       HGA2
   19    16    36	5 ;     CG2R61      CG321       HGA2
   35    16    36	5 ;       HGA2      CG321       HGA2
   14    17    37	5 ;      CG301      CG331       HGA3
   14    17    38	5 ;      CG301      CG331       HGA3
   14    17    39	5 ;      CG301      CG331       HGA3
   37    17    38	5 ;       HGA3      CG331       HGA3
   37    17    39	5 ;       HGA3      CG331       HGA3
   38    17    39	5 ;       HGA3      CG331       HGA3
   14    18    40	5 ;      CG301      CG331       HGA3
   14    18    41	5 ;      CG301      CG331       HGA3
   14    18    42	5 ;      CG301      CG331       HGA3
   40    18    41	5 ;       HGA3      CG331       HGA3
   40    18    42	5 ;       HGA3      CG331       HGA3
   41    18    42	5 ;       HGA3      CG331       HGA3
   20    19    16	5 ;     CG2R61     CG2R61      CG321
   20    19    21	5 ;     CG2R61     CG2R61     CG2R61
   16    19    21	5 ;      CG321     CG2R61     CG2R61
   22    20    19	5 ;     CG2R61     CG2R61     CG2R61
   22    20    43	5 ;     CG2R61     CG2R61      HGR62
   19    20    43	5 ;     CG2R61     CG2R61      HGR62
   19    21    25	5 ;     CG2R61     CG2R61     CG2R61
   19    21    12	5 ;     CG2R61     CG2R61      CG311
   25    21    12	5 ;     CG2R61     CG2R61      CG311
   23    22    20	5 ;      CLGR1     CG2R61     CG2R61
   23    22    24	5 ;      CLGR1     CG2R61     CG2R61
   20    22    24	5 ;     CG2R61     CG2R61     CG2R61
   22    24    25	5 ;     CG2R61     CG2R61     CG2R61
   22    24    44	5 ;     CG2R61     CG2R61      HGR62
   25    24    44	5 ;     CG2R61     CG2R61      HGR62
   24    25    21	5 ;     CG2R61     CG2R61     CG2R61
   24    25    45	5 ;     CG2R61     CG2R61      HGR61
   21    25    45	5 ;     CG2R61     CG2R61      HGR61
    9    26    28	5 ;      CG311      CG2O3      OG2D2
    9    26    27	5 ;      CG311      CG2O3      OG2D2
   28    26    27	5 ;      OG2D2      CG2O3      OG2D2

[ dihedrals ]
;	ai	  aj	ak	  al funct			  c0			c1			  c2			c3			  c4			c5
    8     1     2     3	 9 ;      CG321     CG2R51     CG2R51     SG2R50
    8     1     2    29	 9 ;      CG321     CG2R51     CG2R51      HGR52
    5     1     2     3	 9 ;     CG2R51     CG2R51     CG2R51     SG2R50
    5     1     2    29	 9 ;     CG2R51     CG2R51     CG2R51      HGR52
    2     1     8     9	 9 ;     CG2R51     CG2R51      CG321      CG311
    2     1     8    32	 9 ;     CG2R51     CG2R51      CG321       HGA2
    2     1     8    33	 9 ;     CG2R51     CG2R51      CG321       HGA2
    5     1     8     9	 9 ;     CG2R51     CG2R51      CG321      CG311
    5     1     8    32	 9 ;     CG2R51     CG2R51      CG321       HGA2
    5     1     8    33	 9 ;     CG2R51     CG2R51      CG321       HGA2
    2     1     5     4	 9 ;     CG2R51     CG2R51     CG2R51     CG2R51
    2     1     5     6	 9 ;     CG2R51     CG2R51     CG2R51      CG1T1
    8     1     5     4	 9 ;      CG321     CG2R51     CG2R51     CG2R51
    8     1     5     6	 9 ;      CG321     CG2R51     CG2R51      CG1T1
    1     2     3     4	 9 ;     CG2R51     CG2R51     SG2R50     CG2R51
   29     2     3     4	 9 ;      HGR52     CG2R51     SG2R50     CG2R51
    2     3     4     5	 9 ;     CG2R51     SG2R50     CG2R51     CG2R51
    2     3     4    30	 9 ;     CG2R51     SG2R50     CG2R51      HGR52
    3     4     5     1	 9 ;     SG2R50     CG2R51     CG2R51     CG2R51
    3     4     5     6	 9 ;     SG2R50     CG2R51     CG2R51      CG1T1
   30     4     5     1	 9 ;      HGR52     CG2R51     CG2R51     CG2R51
   30     4     5     6	 9 ;      HGR52     CG2R51     CG2R51      CG1T1
    1     8     9    10	 9 ;     CG2R51      CG321      CG311      NG311
    1     8     9    26	 9 ;     CG2R51      CG321      CG311      CG2O3
    1     8     9    34	 9 ;     CG2R51      CG321      CG311       HGA1
   32     8     9    10	 9 ;       HGA2      CG321      CG311      NG311
   32     8     9    26	 9 ;       HGA2      CG321      CG311      CG2O3
   32     8     9    34	 9 ;       HGA2      CG321      CG311       HGA1
   33     8     9    10	 9 ;       HGA2      CG321      CG311      NG311
   33     8     9    26	 9 ;       HGA2      CG321      CG311      CG2O3
   33     8     9    34	 9 ;       HGA2      CG321      CG311       HGA1
    8     9    10    12	 9 ;      CG321      CG311      NG311      CG311
    8     9    10    11	 9 ;      CG321      CG311      NG311     HGPAM1
   26     9    10    12	 9 ;      CG2O3      CG311      NG311      CG311
   26     9    10    11	 9 ;      CG2O3      CG311      NG311     HGPAM1
   34     9    10    12	 9 ;       HGA1      CG311      NG311      CG311
   34     9    10    11	 9 ;       HGA1      CG311      NG311     HGPAM1
   10     9    26    28	 9 ;      NG311      CG311      CG2O3      OG2D2
   10     9    26    27	 9 ;      NG311      CG311      CG2O3      OG2D2
    8     9    26    28	 9 ;      CG321      CG311      CG2O3      OG2D2
    8     9    26    27	 9 ;      CG321      CG311      CG2O3      OG2D2
   34     9    26    28	 9 ;       HGA1      CG311      CG2O3      OG2D2
   34     9    26    27	 9 ;       HGA1      CG311      CG2O3      OG2D2
    9    10    12    13	 9 ;      CG311      NG311      CG311      NG311
    9    10    12    21	 9 ;      CG311      NG311      CG311     CG2R61
    9    10    12    46	 9 ;      CG311      NG311      CG311       HGA1
   11    10    12    13	 9 ;     HGPAM1      NG311      CG311      NG311
   11    10    12    21	 9 ;     HGPAM1      NG311      CG311     CG2R61
   11    10    12    46	 9 ;     HGPAM1      NG311      CG311       HGA1
   21    12    13    14	 9 ;     CG2R61      CG311      NG311      CG301
   21    12    13    15	 9 ;     CG2R61      CG311      NG311     HGPAM1
   10    12    13    14	 9 ;      NG311      CG311      NG311      CG301
   10    12    13    15	 9 ;      NG311      CG311      NG311     HGPAM1
   46    12    13    14	 9 ;       HGA1      CG311      NG311      CG301
   46    12    13    15	 9 ;       HGA1      CG311      NG311     HGPAM1
   13    12    21    19	 9 ;      NG311      CG311     CG2R61     CG2R61
   13    12    21    25	 9 ;      NG311      CG311     CG2R61     CG2R61
   10    12    21    19	 9 ;      NG311      CG311     CG2R61     CG2R61
   10    12    21    25	 9 ;      NG311      CG311     CG2R61     CG2R61
   46    12    21    19	 9 ;       HGA1      CG311     CG2R61     CG2R61
   46    12    21    25	 9 ;       HGA1      CG311     CG2R61     CG2R61
   15    13    14    18	 9 ;     HGPAM1      NG311      CG301      CG331
   15    13    14    17	 9 ;     HGPAM1      NG311      CG301      CG331
   15    13    14    16	 9 ;     HGPAM1      NG311      CG301      CG321
   12    13    14    18	 9 ;      CG311      NG311      CG301      CG331
   12    13    14    17	 9 ;      CG311      NG311      CG301      CG331
   12    13    14    16	 9 ;      CG311      NG311      CG301      CG321
   17    14    18    40	 9 ;      CG331      CG301      CG331       HGA3
   17    14    18    41	 9 ;      CG331      CG301      CG331       HGA3
   17    14    18    42	 9 ;      CG331      CG301      CG331       HGA3
   16    14    18    40	 9 ;      CG321      CG301      CG331       HGA3
   16    14    18    41	 9 ;      CG321      CG301      CG331       HGA3
   16    14    18    42	 9 ;      CG321      CG301      CG331       HGA3
   13    14    18    40	 9 ;      NG311      CG301      CG331       HGA3
   13    14    18    41	 9 ;      NG311      CG301      CG331       HGA3
   13    14    18    42	 9 ;      NG311      CG301      CG331       HGA3
   18    14    17    37	 9 ;      CG331      CG301      CG331       HGA3
   18    14    17    38	 9 ;      CG331      CG301      CG331       HGA3
   18    14    17    39	 9 ;      CG331      CG301      CG331       HGA3
   16    14    17    37	 9 ;      CG321      CG301      CG331       HGA3
   16    14    17    38	 9 ;      CG321      CG301      CG331       HGA3
   16    14    17    39	 9 ;      CG321      CG301      CG331       HGA3
   13    14    17    37	 9 ;      NG311      CG301      CG331       HGA3
   13    14    17    38	 9 ;      NG311      CG301      CG331       HGA3
   13    14    17    39	 9 ;      NG311      CG301      CG331       HGA3
   18    14    16    19	 9 ;      CG331      CG301      CG321     CG2R61
   18    14    16    35	 9 ;      CG331      CG301      CG321       HGA2
   18    14    16    36	 9 ;      CG331      CG301      CG321       HGA2
   17    14    16    19	 9 ;      CG331      CG301      CG321     CG2R61
   17    14    16    35	 9 ;      CG331      CG301      CG321       HGA2
   17    14    16    36	 9 ;      CG331      CG301      CG321       HGA2
   13    14    16    19	 9 ;      NG311      CG301      CG321     CG2R61
   13    14    16    35	 9 ;      NG311      CG301      CG321       HGA2
   13    14    16    36	 9 ;      NG311      CG301      CG321       HGA2
   14    16    19    20	 9 ;      CG301      CG321     CG2R61     CG2R61
   14    16    19    21	 9 ;      CG301      CG321     CG2R61     CG2R61
   35    16    19    20	 9 ;       HGA2      CG321     CG2R61     CG2R61
   35    16    19    21	 9 ;       HGA2      CG321     CG2R61     CG2R61
   36    16    19    20	 9 ;       HGA2      CG321     CG2R61     CG2R61
   36    16    19    21	 9 ;       HGA2      CG321     CG2R61     CG2R61
   16    19    20    22	 9 ;      CG321     CG2R61     CG2R61     CG2R61
   16    19    20    43	 9 ;      CG321     CG2R61     CG2R61      HGR62
   21    19    20    22	 9 ;     CG2R61     CG2R61     CG2R61     CG2R61
   21    19    20    43	 9 ;     CG2R61     CG2R61     CG2R61      HGR62
   20    19    21    25	 9 ;     CG2R61     CG2R61     CG2R61     CG2R61
   20    19    21    12	 9 ;     CG2R61     CG2R61     CG2R61      CG311
   16    19    21    25	 9 ;      CG321     CG2R61     CG2R61     CG2R61
   16    19    21    12	 9 ;      CG321     CG2R61     CG2R61      CG311
   19    20    22    23	 9 ;     CG2R61     CG2R61     CG2R61      CLGR1
   19    20    22    24	 9 ;     CG2R61     CG2R61     CG2R61     CG2R61
   43    20    22    23	 9 ;      HGR62     CG2R61     CG2R61      CLGR1
   43    20    22    24	 9 ;      HGR62     CG2R61     CG2R61     CG2R61
   19    21    25    24	 9 ;     CG2R61     CG2R61     CG2R61     CG2R61
   19    21    25    45	 9 ;     CG2R61     CG2R61     CG2R61      HGR61
   12    21    25    24	 9 ;      CG311     CG2R61     CG2R61     CG2R61
   12    21    25    45	 9 ;      CG311     CG2R61     CG2R61      HGR61
   23    22    24    25	 9 ;      CLGR1     CG2R61     CG2R61     CG2R61
   23    22    24    44	 9 ;      CLGR1     CG2R61     CG2R61      HGR62
   20    22    24    25	 9 ;     CG2R61     CG2R61     CG2R61     CG2R61
   20    22    24    44	 9 ;     CG2R61     CG2R61     CG2R61      HGR62
   22    24    25    21	 9 ;     CG2R61     CG2R61     CG2R61     CG2R61
   22    24    25    45	 9 ;     CG2R61     CG2R61     CG2R61      HGR61
   44    24    25    21	 9 ;      HGR62     CG2R61     CG2R61     CG2R61
   44    24    25    45	 9 ;      HGR62     CG2R61     CG2R61      HGR61

[ dihedrals ]
;	ai	  aj	ak	  al funct			  c0			c1			  c2			c3
   26    27    28     9	 2

[ virtual_sites2 ]
; Site   from				funct a
   47    23    22     2   -0.164

[ exclusions ]
;	ai	  aj
   23    47
   47    22
   47    20
   47    24
   47    19
   47    43
   47    25
   47    44

