Georgetown Riga Oslo Madrid Amsterdam Chisinau Stockholm
   47
    1LIG     C1    1  -1.838   0.305  -1.779
    1LIG     C2    2  -1.836   0.368  -1.902
    1LIG      S    3  -1.989   0.426  -1.952
    1LIG     C3    4  -2.062   0.366  -1.810
    1LIG     C4    5  -1.972   0.305  -1.726
    1LIG     C5    6  -2.014   0.248  -1.602
    1LIG     C6    7  -2.049   0.201  -1.497
    1LIG     C7    8  -1.716   0.244  -1.712
    1LIG     CA    9  -1.614   0.343  -1.654
    1LIG     N1   10  -1.501   0.271  -1.595
    1LIG      H   11  -1.537   0.190  -1.542
    1LIG     C8   12  -1.383   0.327  -1.556
    1LIG     N2   13  -1.360   0.455  -1.568
    1LIG     C9   14  -1.231   0.509  -1.524
    1LIG     HN   15  -1.431   0.516  -1.608
    1LIG    C10   16  -1.182   0.438  -1.395
    1LIG    C11   17  -1.252   0.658  -1.493
    1LIG    C12   18  -1.129   0.497  -1.639
    1LIG    C13   19  -1.180   0.289  -1.418
    1LIG    C14   20  -1.082   0.206  -1.362
    1LIG    C15   21  -1.279   0.235  -1.500
    1LIG    C16   22  -1.081   0.071  -1.396
    1LIG     CL   23  -0.959  -0.032  -1.331
    1LIG    C17   24  -1.176   0.017  -1.483
    1LIG    C18   25  -1.276   0.100  -1.535
    1LIG    C19   26  -1.679   0.438  -1.549
    1LIG      O   27  -1.734   0.384  -1.450
    1LIG    OXT   28  -1.669   0.562  -1.577
    1LIG     HC   29  -1.746   0.380  -1.961
    1LIG    HC1   30  -2.168   0.376  -1.789
    1LIG    HC2   31  -2.079   0.159  -1.405
    1LIG    HC3   32  -1.751   0.181  -1.630
    1LIG    HC4   33  -1.665   0.181  -1.785
    1LIG    HC5   34  -1.576   0.403  -1.736
    1LIG    HC6   35  -1.082   0.472  -1.370
    1LIG    HC7   36  -1.250   0.461  -1.313
    1LIG    HC8   37  -1.323   0.669  -1.412
    1LIG    HC9   38  -1.156   0.703  -1.464
    1LIG   HC10   39  -1.290   0.708  -1.582
    1LIG   HC11   40  -1.113   0.392  -1.662
    1LIG   HC12   41  -1.168   0.548  -1.727
    1LIG   HC13   42  -1.035   0.543  -1.609
    1LIG   HC14   43  -1.009   0.246  -1.294
    1LIG   HC15   44  -1.172  -0.087  -1.511
    1LIG   HC16   45  -1.352   0.059  -1.600
    1LIG    H20   46  -1.423   0.344  -1.456
    1LIG    LP1   47  -0.842  -0.129  -1.269
   0.00000   0.00000   0.00000
