; Created by cgenff_charmm2gmx.py

[ moleculetype ]
; Name			   nrexcl
LIG				 3

[ atoms ]
;	 nr		  type	resnr residue  atom   cgnr	   charge		mass  typeB    chargeB		massB
; residue	 1 LIG rtp LIG q	qsum
     1      SG3O2      1    LIG      S      1      0.311     32.060   ;
     2      OG2P1      1    LIG     O1      2     -0.246     15.999   ;
     3      OG2P1      1    LIG     O2      3     -0.246     15.999   ;
     4     NG3C51      1    LIG     N1      4     -0.562     14.007   ;
     5     CG3C52      1    LIG     C1      5      0.080     12.011   ;
     6     CG3C50      1    LIG     C2      6      0.202     12.011   ;
     7     NG3C51      1    LIG     N2      7     -0.408     14.007   ;
     8      CG321      1    LIG     C3      8     -0.124     12.011   ;
     9      CG314      1    LIG     C4      9      0.198     12.011   ;
    10      NG3P1      1    LIG     N3     10     -0.462     14.007   ;
    11      CG324      1    LIG     C5     11      0.103     12.011   ;
    12      CG321      1    LIG     C6     12     -0.123     12.011   ;
    13      CG331      1    LIG     C7     13     -0.213     12.011   ;
    14       HGP1      1    LIG     H1     14      0.398      1.008   ;
    15       HGP2      1    LIG     H2     15      0.319      1.008   ;
    16     CG2R61      1    LIG     C8     16      0.378     12.011   ;
    17     CG2R61      1    LIG     C9     17     -0.169     12.011   ;
    18     CG2R66      1    LIG    C10     18      0.105     12.011   ;
    19       FGR1      1    LIG      F     19     -0.211     18.998   ;
    20     CG2R61      1    LIG    C11     20     -0.107     12.011   ;
    21     CG2R61      1    LIG    C12     21     -0.149     12.011   ;
    22     CG2R61      1    LIG    C13     22     -0.107     12.011   ;
    23      CG324      1    LIG    C14     23      0.119     12.011   ;
    24     CG2R61      1    LIG    C15     24      0.069     12.011   ;
    25     CG2R61      1    LIG    C16     25     -0.123     12.011   ;
    26     CG2R61      1    LIG    C17     26      0.159     12.011   ;
    27     CG2R61      1    LIG    C18     27     -0.119     12.011   ;
    28     CG2R61      1    LIG    C19     28     -0.108     12.011   ;
    29     CG2R61      1    LIG    C20     29     -0.120     12.011   ;
    30      OG301      1    LIG     O3     30     -0.341     15.999   ;
    31      CG311      1    LIG    C21     31      0.059     12.011   ;
    32      CG331      1    LIG    C22     32     -0.251     12.011   ;
    33      CG331      1    LIG    C23     33     -0.251     12.011   ;
    34       HGA2      1    LIG    HC2     34      0.090      1.008   ;
    35       HGA2      1    LIG    HC3     35      0.090      1.008   ;
    36       HGA2      1    LIG    HC4     36      0.090      1.008   ;
    37       HGA2      1    LIG    HC5     37      0.090      1.008   ;
    38       HGA1      1    LIG     HC     38      0.090      1.008   ;
    39       HGA2      1    LIG    HC6     39      0.090      1.008   ;
    40       HGA2      1    LIG    HC7     40      0.090      1.008   ;
    41       HGA2      1    LIG    HC8     41      0.090      1.008   ;
    42       HGA2      1    LIG    HC9     42      0.090      1.008   ;
    43       HGA3      1    LIG    HC1     43      0.090      1.008   ;
    44       HGA3      1    LIG   HC10     44      0.090      1.008   ;
    45       HGA3      1    LIG   HC11     45      0.090      1.008   ;
    46      HGR62      1    LIG   HC12     46      0.175      1.008   ;
    47      HGR62      1    LIG   HC13     47      0.179      1.008   ;
    48      HGR61      1    LIG   HC14     48      0.116      1.008   ;
    49      HGR61      1    LIG   HC15     49      0.116      1.008   ;
    50       HGA2      1    LIG   HC16     50      0.090      1.008   ;
    51       HGA2      1    LIG   HC17     51      0.090      1.008   ;
    52      HGR61      1    LIG   HC18     52      0.116      1.008   ;
    53      HGR61      1    LIG   HC19     53      0.116      1.008   ;
    54      HGR61      1    LIG   HC20     54      0.116      1.008   ;
    55      HGR61      1    LIG   HC21     55      0.116      1.008   ;
    56       HGA1      1    LIG   HC22     56      0.090      1.008   ;
    57       HGA3      1    LIG   HC23     57      0.090      1.008   ;
    58       HGA3      1    LIG   HC24     58      0.090      1.008   ;
    59       HGA3      1    LIG   HC25     59      0.090      1.008   ;
    60       HGA3      1    LIG   HC26     60      0.090      1.008   ;
    61       HGA3      1    LIG   HC27     61      0.090      1.008   ;
    62       HGA3      1    LIG   HC28     62      0.090      1.008   ;

[ bonds ]
;	ai	  aj funct			  c0			c1			  c2			c3
    1     4	 1 ;       SG3O2     NG3C51
    1     2	 1 ;       SG3O2      OG2P1
    1     7	 1 ;       SG3O2     NG3C51
    1     3	 1 ;       SG3O2      OG2P1
    4     5	 1 ;      NG3C51     CG3C52
    4    14	 1 ;      NG3C51       HGP1
    5     6	 1 ;      CG3C52     CG3C50
    5    34	 1 ;      CG3C52       HGA2
    5    35	 1 ;      CG3C52       HGA2
    6     8	 1 ;      CG3C50      CG321
    6    12	 1 ;      CG3C50      CG321
    6     7	 1 ;      CG3C50     NG3C51
    7    16	 1 ;      NG3C51     CG2R61
    8     9	 1 ;       CG321      CG314
    8    36	 1 ;       CG321       HGA2
    8    37	 1 ;       CG321       HGA2
    9    13	 1 ;       CG314      CG331
    9    10	 1 ;       CG314      NG3P1
    9    38	 1 ;       CG314       HGA1
   10    15	 1 ;       NG3P1       HGP2
   10    11	 1 ;       NG3P1      CG324
   10    23	 1 ;       NG3P1      CG324
   11    12	 1 ;       CG324      CG321
   11    39	 1 ;       CG324       HGA2
   11    40	 1 ;       CG324       HGA2
   12    41	 1 ;       CG321       HGA2
   12    42	 1 ;       CG321       HGA2
   13    43	 1 ;       CG331       HGA3
   13    44	 1 ;       CG331       HGA3
   13    45	 1 ;       CG331       HGA3
   16    17	 1 ;      CG2R61     CG2R61
   16    22	 1 ;      CG2R61     CG2R61
   17    18	 1 ;      CG2R61     CG2R66
   17    46	 1 ;      CG2R61      HGR62
   18    19	 1 ;      CG2R66       FGR1
   18    20	 1 ;      CG2R66     CG2R61
   20    21	 1 ;      CG2R61     CG2R61
   20    47	 1 ;      CG2R61      HGR62
   21    22	 1 ;      CG2R61     CG2R61
   21    48	 1 ;      CG2R61      HGR61
   22    49	 1 ;      CG2R61      HGR61
   23    24	 1 ;       CG324     CG2R61
   23    50	 1 ;       CG324       HGA2
   23    51	 1 ;       CG324       HGA2
   24    29	 1 ;      CG2R61     CG2R61
   24    25	 1 ;      CG2R61     CG2R61
   25    26	 1 ;      CG2R61     CG2R61
   25    52	 1 ;      CG2R61      HGR61
   26    27	 1 ;      CG2R61     CG2R61
   26    30	 1 ;      CG2R61      OG301
   27    28	 1 ;      CG2R61     CG2R61
   27    53	 1 ;      CG2R61      HGR61
   28    29	 1 ;      CG2R61     CG2R61
   28    54	 1 ;      CG2R61      HGR61
   29    55	 1 ;      CG2R61      HGR61
   30    31	 1 ;       OG301      CG311
   31    33	 1 ;       CG311      CG331
   31    32	 1 ;       CG311      CG331
   31    56	 1 ;       CG311       HGA1
   32    57	 1 ;       CG331       HGA3
   32    58	 1 ;       CG331       HGA3
   32    59	 1 ;       CG331       HGA3
   33    60	 1 ;       CG331       HGA3
   33    61	 1 ;       CG331       HGA3
   33    62	 1 ;       CG331       HGA3

[ pairs ]
;	ai	  aj funct			  c0			c1			  c2			c3
    1    34	 1
    1    35	 1
    1     8	 1
    1    12	 1
    1    17	 1
    1    22	 1
    2     5	 1
    2    14	 1
    2     6	 1
    2    16	 1
    3     5	 1
    3    14	 1
    3     6	 1
    3    16	 1
    4    16	 1
    4     8	 1
    4    12	 1
    5     9	 1
    5    36	 1
    5    37	 1
    5    11	 1
    5    41	 1
    5    42	 1
    5    16	 1
    6    14	 1
    6    17	 1
    6    22	 1
    6    13	 1
    6    10	 1
    6    38	 1
    6    39	 1
    6    40	 1
    7    14	 1
    7    34	 1
    7    35	 1
    7     9	 1
    7    36	 1
    7    37	 1
    7    11	 1
    7    41	 1
    7    42	 1
    7    18	 1
    7    46	 1
    7    21	 1
    7    49	 1
    8    34	 1
    8    35	 1
    8    11	 1
    8    41	 1
    8    42	 1
    8    16	 1
    8    43	 1
    8    44	 1
    8    45	 1
    8    15	 1
    8    23	 1
    9    12	 1
    9    39	 1
    9    40	 1
    9    24	 1
    9    50	 1
    9    51	 1
   10    36	 1
   10    37	 1
   10    43	 1
   10    44	 1
   10    45	 1
   10    41	 1
   10    42	 1
   10    29	 1
   10    25	 1
   11    13	 1
   11    38	 1
   11    24	 1
   11    50	 1
   11    51	 1
   12    34	 1
   12    35	 1
   12    36	 1
   12    37	 1
   12    16	 1
   12    15	 1
   12    23	 1
   13    36	 1
   13    37	 1
   13    15	 1
   13    23	 1
   14    34	 1
   14    35	 1
   15    38	 1
   15    39	 1
   15    40	 1
   15    24	 1
   15    50	 1
   15    51	 1
   16    19	 1
   16    20	 1
   16    48	 1
   17    21	 1
   17    49	 1
   17    47	 1
   18    22	 1
   18    48	 1
   19    46	 1
   19    21	 1
   19    47	 1
   20    46	 1
   20    49	 1
   22    46	 1
   22    47	 1
   23    38	 1
   23    39	 1
   23    40	 1
   23    28	 1
   23    55	 1
   23    26	 1
   23    52	 1
   24    27	 1
   24    30	 1
   24    54	 1
   25    50	 1
   25    51	 1
   25    28	 1
   25    55	 1
   25    53	 1
   25    31	 1
   26    29	 1
   26    54	 1
   26    33	 1
   26    32	 1
   26    56	 1
   27    52	 1
   27    31	 1
   27    55	 1
   28    30	 1
   29    50	 1
   29    51	 1
   29    52	 1
   29    53	 1
   30    52	 1
   30    53	 1
   30    60	 1
   30    61	 1
   30    62	 1
   30    57	 1
   30    58	 1
   30    59	 1
   32    60	 1
   32    61	 1
   32    62	 1
   33    57	 1
   33    58	 1
   33    59	 1
   36    38	 1
   37    38	 1
   38    43	 1
   38    44	 1
   38    45	 1
   39    41	 1
   39    42	 1
   40    41	 1
   40    42	 1
   47    48	 1
   48    49	 1
   53    54	 1
   54    55	 1
   56    60	 1
   56    61	 1
   56    62	 1
   56    57	 1
   56    58	 1
   56    59	 1

[ angles ]
;	ai	  aj	ak funct			c0			  c1			c2			  c3
    4     1     2	5 ;     NG3C51      SG3O2      OG2P1
    4     1     7	5 ;     NG3C51      SG3O2     NG3C51
    4     1     3	5 ;     NG3C51      SG3O2      OG2P1
    2     1     7	5 ;      OG2P1      SG3O2     NG3C51
    2     1     3	5 ;      OG2P1      SG3O2      OG2P1
    7     1     3	5 ;     NG3C51      SG3O2      OG2P1
    5     4    14	5 ;     CG3C52     NG3C51       HGP1
    5     4     1	5 ;     CG3C52     NG3C51      SG3O2
   14     4     1	5 ;       HGP1     NG3C51      SG3O2
    4     5     6	5 ;     NG3C51     CG3C52     CG3C50
    4     5    34	5 ;     NG3C51     CG3C52       HGA2
    4     5    35	5 ;     NG3C51     CG3C52       HGA2
    6     5    34	5 ;     CG3C50     CG3C52       HGA2
    6     5    35	5 ;     CG3C50     CG3C52       HGA2
   34     5    35	5 ;       HGA2     CG3C52       HGA2
    5     6     8	5 ;     CG3C52     CG3C50      CG321
    5     6    12	5 ;     CG3C52     CG3C50      CG321
    5     6     7	5 ;     CG3C52     CG3C50     NG3C51
    8     6    12	5 ;      CG321     CG3C50      CG321
    8     6     7	5 ;      CG321     CG3C50     NG3C51
   12     6     7	5 ;      CG321     CG3C50     NG3C51
    6     7     1	5 ;     CG3C50     NG3C51      SG3O2
    6     7    16	5 ;     CG3C50     NG3C51     CG2R61
    1     7    16	5 ;      SG3O2     NG3C51     CG2R61
    9     8     6	5 ;      CG314      CG321     CG3C50
    9     8    36	5 ;      CG314      CG321       HGA2
    9     8    37	5 ;      CG314      CG321       HGA2
    6     8    36	5 ;     CG3C50      CG321       HGA2
    6     8    37	5 ;     CG3C50      CG321       HGA2
   36     8    37	5 ;       HGA2      CG321       HGA2
   13     9    10	5 ;      CG331      CG314      NG3P1
   13     9     8	5 ;      CG331      CG314      CG321
   13     9    38	5 ;      CG331      CG314       HGA1
   10     9     8	5 ;      NG3P1      CG314      CG321
   10     9    38	5 ;      NG3P1      CG314       HGA1
    8     9    38	5 ;      CG321      CG314       HGA1
   15    10     9	5 ;       HGP2      NG3P1      CG314
   15    10    11	5 ;       HGP2      NG3P1      CG324
   15    10    23	5 ;       HGP2      NG3P1      CG324
    9    10    11	5 ;      CG314      NG3P1      CG324
    9    10    23	5 ;      CG314      NG3P1      CG324
   11    10    23	5 ;      CG324      NG3P1      CG324
   10    11    12	5 ;      NG3P1      CG324      CG321
   10    11    39	5 ;      NG3P1      CG324       HGA2
   10    11    40	5 ;      NG3P1      CG324       HGA2
   12    11    39	5 ;      CG321      CG324       HGA2
   12    11    40	5 ;      CG321      CG324       HGA2
   39    11    40	5 ;       HGA2      CG324       HGA2
   11    12     6	5 ;      CG324      CG321     CG3C50
   11    12    41	5 ;      CG324      CG321       HGA2
   11    12    42	5 ;      CG324      CG321       HGA2
    6    12    41	5 ;     CG3C50      CG321       HGA2
    6    12    42	5 ;     CG3C50      CG321       HGA2
   41    12    42	5 ;       HGA2      CG321       HGA2
    9    13    43	5 ;      CG314      CG331       HGA3
    9    13    44	5 ;      CG314      CG331       HGA3
    9    13    45	5 ;      CG314      CG331       HGA3
   43    13    44	5 ;       HGA3      CG331       HGA3
   43    13    45	5 ;       HGA3      CG331       HGA3
   44    13    45	5 ;       HGA3      CG331       HGA3
    7    16    17	5 ;     NG3C51     CG2R61     CG2R61
    7    16    22	5 ;     NG3C51     CG2R61     CG2R61
   17    16    22	5 ;     CG2R61     CG2R61     CG2R61
   16    17    18	5 ;     CG2R61     CG2R61     CG2R66
   16    17    46	5 ;     CG2R61     CG2R61      HGR62
   18    17    46	5 ;     CG2R66     CG2R61      HGR62
   17    18    19	5 ;     CG2R61     CG2R66       FGR1
   17    18    20	5 ;     CG2R61     CG2R66     CG2R61
   19    18    20	5 ;       FGR1     CG2R66     CG2R61
   18    20    21	5 ;     CG2R66     CG2R61     CG2R61
   18    20    47	5 ;     CG2R66     CG2R61      HGR62
   21    20    47	5 ;     CG2R61     CG2R61      HGR62
   22    21    20	5 ;     CG2R61     CG2R61     CG2R61
   22    21    48	5 ;     CG2R61     CG2R61      HGR61
   20    21    48	5 ;     CG2R61     CG2R61      HGR61
   16    22    21	5 ;     CG2R61     CG2R61     CG2R61
   16    22    49	5 ;     CG2R61     CG2R61      HGR61
   21    22    49	5 ;     CG2R61     CG2R61      HGR61
   10    23    24	5 ;      NG3P1      CG324     CG2R61
   10    23    50	5 ;      NG3P1      CG324       HGA2
   10    23    51	5 ;      NG3P1      CG324       HGA2
   24    23    50	5 ;     CG2R61      CG324       HGA2
   24    23    51	5 ;     CG2R61      CG324       HGA2
   50    23    51	5 ;       HGA2      CG324       HGA2
   29    24    25	5 ;     CG2R61     CG2R61     CG2R61
   29    24    23	5 ;     CG2R61     CG2R61      CG324
   25    24    23	5 ;     CG2R61     CG2R61      CG324
   26    25    24	5 ;     CG2R61     CG2R61     CG2R61
   26    25    52	5 ;     CG2R61     CG2R61      HGR61
   24    25    52	5 ;     CG2R61     CG2R61      HGR61
   27    26    30	5 ;     CG2R61     CG2R61      OG301
   27    26    25	5 ;     CG2R61     CG2R61     CG2R61
   30    26    25	5 ;      OG301     CG2R61     CG2R61
   28    27    26	5 ;     CG2R61     CG2R61     CG2R61
   28    27    53	5 ;     CG2R61     CG2R61      HGR61
   26    27    53	5 ;     CG2R61     CG2R61      HGR61
   27    28    29	5 ;     CG2R61     CG2R61     CG2R61
   27    28    54	5 ;     CG2R61     CG2R61      HGR61
   29    28    54	5 ;     CG2R61     CG2R61      HGR61
   28    29    24	5 ;     CG2R61     CG2R61     CG2R61
   28    29    55	5 ;     CG2R61     CG2R61      HGR61
   24    29    55	5 ;     CG2R61     CG2R61      HGR61
   31    30    26	5 ;      CG311      OG301     CG2R61
   33    31    32	5 ;      CG331      CG311      CG331
   33    31    30	5 ;      CG331      CG311      OG301
   33    31    56	5 ;      CG331      CG311       HGA1
   32    31    30	5 ;      CG331      CG311      OG301
   32    31    56	5 ;      CG331      CG311       HGA1
   30    31    56	5 ;      OG301      CG311       HGA1
   31    32    57	5 ;      CG311      CG331       HGA3
   31    32    58	5 ;      CG311      CG331       HGA3
   31    32    59	5 ;      CG311      CG331       HGA3
   57    32    58	5 ;       HGA3      CG331       HGA3
   57    32    59	5 ;       HGA3      CG331       HGA3
   58    32    59	5 ;       HGA3      CG331       HGA3
   31    33    60	5 ;      CG311      CG331       HGA3
   31    33    61	5 ;      CG311      CG331       HGA3
   31    33    62	5 ;      CG311      CG331       HGA3
   60    33    61	5 ;       HGA3      CG331       HGA3
   60    33    62	5 ;       HGA3      CG331       HGA3
   61    33    62	5 ;       HGA3      CG331       HGA3

[ dihedrals ]
;	ai	  aj	ak	  al funct			  c0			c1			  c2			c3			  c4			c5
    2     1     4     5	 9 ;      OG2P1      SG3O2     NG3C51     CG3C52
    2     1     4    14	 9 ;      OG2P1      SG3O2     NG3C51       HGP1
    7     1     4     5	 9 ;     NG3C51      SG3O2     NG3C51     CG3C52
    7     1     4    14	 9 ;     NG3C51      SG3O2     NG3C51       HGP1
    3     1     4     5	 9 ;      OG2P1      SG3O2     NG3C51     CG3C52
    3     1     4    14	 9 ;      OG2P1      SG3O2     NG3C51       HGP1
    4     1     7     6	 9 ;     NG3C51      SG3O2     NG3C51     CG3C50
    4     1     7    16	 9 ;     NG3C51      SG3O2     NG3C51     CG2R61
    2     1     7     6	 9 ;      OG2P1      SG3O2     NG3C51     CG3C50
    2     1     7    16	 9 ;      OG2P1      SG3O2     NG3C51     CG2R61
    3     1     7     6	 9 ;      OG2P1      SG3O2     NG3C51     CG3C50
    3     1     7    16	 9 ;      OG2P1      SG3O2     NG3C51     CG2R61
   14     4     5     6	 9 ;       HGP1     NG3C51     CG3C52     CG3C50
   14     4     5    34	 9 ;       HGP1     NG3C51     CG3C52       HGA2
   14     4     5    35	 9 ;       HGP1     NG3C51     CG3C52       HGA2
    1     4     5     6	 9 ;      SG3O2     NG3C51     CG3C52     CG3C50
    1     4     5    34	 9 ;      SG3O2     NG3C51     CG3C52       HGA2
    1     4     5    35	 9 ;      SG3O2     NG3C51     CG3C52       HGA2
    4     5     6     8	 9 ;     NG3C51     CG3C52     CG3C50      CG321
    4     5     6    12	 9 ;     NG3C51     CG3C52     CG3C50      CG321
    4     5     6     7	 9 ;     NG3C51     CG3C52     CG3C50     NG3C51
   34     5     6     8	 9 ;       HGA2     CG3C52     CG3C50      CG321
   34     5     6    12	 9 ;       HGA2     CG3C52     CG3C50      CG321
   34     5     6     7	 9 ;       HGA2     CG3C52     CG3C50     NG3C51
   35     5     6     8	 9 ;       HGA2     CG3C52     CG3C50      CG321
   35     5     6    12	 9 ;       HGA2     CG3C52     CG3C50      CG321
   35     5     6     7	 9 ;       HGA2     CG3C52     CG3C50     NG3C51
    5     6     8     9	 9 ;     CG3C52     CG3C50      CG321      CG314
    5     6     8    36	 9 ;     CG3C52     CG3C50      CG321       HGA2
    5     6     8    37	 9 ;     CG3C52     CG3C50      CG321       HGA2
   12     6     8     9	 9 ;      CG321     CG3C50      CG321      CG314
   12     6     8    36	 9 ;      CG321     CG3C50      CG321       HGA2
   12     6     8    37	 9 ;      CG321     CG3C50      CG321       HGA2
    7     6     8     9	 9 ;     NG3C51     CG3C50      CG321      CG314
    7     6     8    36	 9 ;     NG3C51     CG3C50      CG321       HGA2
    7     6     8    37	 9 ;     NG3C51     CG3C50      CG321       HGA2
    5     6    12    11	 9 ;     CG3C52     CG3C50      CG321      CG324
    5     6    12    41	 9 ;     CG3C52     CG3C50      CG321       HGA2
    5     6    12    42	 9 ;     CG3C52     CG3C50      CG321       HGA2
    8     6    12    11	 9 ;      CG321     CG3C50      CG321      CG324
    8     6    12    41	 9 ;      CG321     CG3C50      CG321       HGA2
    8     6    12    42	 9 ;      CG321     CG3C50      CG321       HGA2
    7     6    12    11	 9 ;     NG3C51     CG3C50      CG321      CG324
    7     6    12    41	 9 ;     NG3C51     CG3C50      CG321       HGA2
    7     6    12    42	 9 ;     NG3C51     CG3C50      CG321       HGA2
    5     6     7     1	 9 ;     CG3C52     CG3C50     NG3C51      SG3O2
    5     6     7    16	 9 ;     CG3C52     CG3C50     NG3C51     CG2R61
    8     6     7     1	 9 ;      CG321     CG3C50     NG3C51      SG3O2
    8     6     7    16	 9 ;      CG321     CG3C50     NG3C51     CG2R61
   12     6     7     1	 9 ;      CG321     CG3C50     NG3C51      SG3O2
   12     6     7    16	 9 ;      CG321     CG3C50     NG3C51     CG2R61
    6     7    16    17	 9 ;     CG3C50     NG3C51     CG2R61     CG2R61
    6     7    16    22	 9 ;     CG3C50     NG3C51     CG2R61     CG2R61
    1     7    16    17	 9 ;      SG3O2     NG3C51     CG2R61     CG2R61
    1     7    16    22	 9 ;      SG3O2     NG3C51     CG2R61     CG2R61
    6     8     9    13	 9 ;     CG3C50      CG321      CG314      CG331
    6     8     9    10	 9 ;     CG3C50      CG321      CG314      NG3P1
    6     8     9    38	 9 ;     CG3C50      CG321      CG314       HGA1
   36     8     9    13	 9 ;       HGA2      CG321      CG314      CG331
   36     8     9    10	 9 ;       HGA2      CG321      CG314      NG3P1
   36     8     9    38	 9 ;       HGA2      CG321      CG314       HGA1
   37     8     9    13	 9 ;       HGA2      CG321      CG314      CG331
   37     8     9    10	 9 ;       HGA2      CG321      CG314      NG3P1
   37     8     9    38	 9 ;       HGA2      CG321      CG314       HGA1
   10     9    13    43	 9 ;      NG3P1      CG314      CG331       HGA3
   10     9    13    44	 9 ;      NG3P1      CG314      CG331       HGA3
   10     9    13    45	 9 ;      NG3P1      CG314      CG331       HGA3
    8     9    13    43	 9 ;      CG321      CG314      CG331       HGA3
    8     9    13    44	 9 ;      CG321      CG314      CG331       HGA3
    8     9    13    45	 9 ;      CG321      CG314      CG331       HGA3
   38     9    13    43	 9 ;       HGA1      CG314      CG331       HGA3
   38     9    13    44	 9 ;       HGA1      CG314      CG331       HGA3
   38     9    13    45	 9 ;       HGA1      CG314      CG331       HGA3
   13     9    10    15	 9 ;      CG331      CG314      NG3P1       HGP2
   13     9    10    11	 9 ;      CG331      CG314      NG3P1      CG324
   13     9    10    23	 9 ;      CG331      CG314      NG3P1      CG324
    8     9    10    15	 9 ;      CG321      CG314      NG3P1       HGP2
    8     9    10    11	 9 ;      CG321      CG314      NG3P1      CG324
    8     9    10    23	 9 ;      CG321      CG314      NG3P1      CG324
   38     9    10    15	 9 ;       HGA1      CG314      NG3P1       HGP2
   38     9    10    11	 9 ;       HGA1      CG314      NG3P1      CG324
   38     9    10    23	 9 ;       HGA1      CG314      NG3P1      CG324
   15    10    11    12	 9 ;       HGP2      NG3P1      CG324      CG321
   15    10    11    39	 9 ;       HGP2      NG3P1      CG324       HGA2
   15    10    11    40	 9 ;       HGP2      NG3P1      CG324       HGA2
    9    10    11    12	 9 ;      CG314      NG3P1      CG324      CG321
    9    10    11    39	 9 ;      CG314      NG3P1      CG324       HGA2
    9    10    11    40	 9 ;      CG314      NG3P1      CG324       HGA2
   23    10    11    12	 9 ;      CG324      NG3P1      CG324      CG321
   23    10    11    39	 9 ;      CG324      NG3P1      CG324       HGA2
   23    10    11    40	 9 ;      CG324      NG3P1      CG324       HGA2
   15    10    23    24	 9 ;       HGP2      NG3P1      CG324     CG2R61
   15    10    23    50	 9 ;       HGP2      NG3P1      CG324       HGA2
   15    10    23    51	 9 ;       HGP2      NG3P1      CG324       HGA2
    9    10    23    24	 9 ;      CG314      NG3P1      CG324     CG2R61
    9    10    23    50	 9 ;      CG314      NG3P1      CG324       HGA2
    9    10    23    51	 9 ;      CG314      NG3P1      CG324       HGA2
   11    10    23    24	 9 ;      CG324      NG3P1      CG324     CG2R61
   11    10    23    50	 9 ;      CG324      NG3P1      CG324       HGA2
   11    10    23    51	 9 ;      CG324      NG3P1      CG324       HGA2
   10    11    12     6	 9 ;      NG3P1      CG324      CG321     CG3C50
   10    11    12    41	 9 ;      NG3P1      CG324      CG321       HGA2
   10    11    12    42	 9 ;      NG3P1      CG324      CG321       HGA2
   39    11    12     6	 9 ;       HGA2      CG324      CG321     CG3C50
   39    11    12    41	 9 ;       HGA2      CG324      CG321       HGA2
   39    11    12    42	 9 ;       HGA2      CG324      CG321       HGA2
   40    11    12     6	 9 ;       HGA2      CG324      CG321     CG3C50
   40    11    12    41	 9 ;       HGA2      CG324      CG321       HGA2
   40    11    12    42	 9 ;       HGA2      CG324      CG321       HGA2
    7    16    17    18	 9 ;     NG3C51     CG2R61     CG2R61     CG2R66
    7    16    17    46	 9 ;     NG3C51     CG2R61     CG2R61      HGR62
   22    16    17    18	 9 ;     CG2R61     CG2R61     CG2R61     CG2R66
   22    16    17    46	 9 ;     CG2R61     CG2R61     CG2R61      HGR62
    7    16    22    21	 9 ;     NG3C51     CG2R61     CG2R61     CG2R61
    7    16    22    49	 9 ;     NG3C51     CG2R61     CG2R61      HGR61
   17    16    22    21	 9 ;     CG2R61     CG2R61     CG2R61     CG2R61
   17    16    22    49	 9 ;     CG2R61     CG2R61     CG2R61      HGR61
   16    17    18    19	 9 ;     CG2R61     CG2R61     CG2R66       FGR1
   16    17    18    20	 9 ;     CG2R61     CG2R61     CG2R66     CG2R61
   46    17    18    19	 9 ;      HGR62     CG2R61     CG2R66       FGR1
   46    17    18    20	 9 ;      HGR62     CG2R61     CG2R66     CG2R61
   17    18    20    21	 9 ;     CG2R61     CG2R66     CG2R61     CG2R61
   17    18    20    47	 9 ;     CG2R61     CG2R66     CG2R61      HGR62
   19    18    20    21	 9 ;       FGR1     CG2R66     CG2R61     CG2R61
   19    18    20    47	 9 ;       FGR1     CG2R66     CG2R61      HGR62
   18    20    21    22	 9 ;     CG2R66     CG2R61     CG2R61     CG2R61
   18    20    21    48	 9 ;     CG2R66     CG2R61     CG2R61      HGR61
   47    20    21    22	 9 ;      HGR62     CG2R61     CG2R61     CG2R61
   47    20    21    48	 9 ;      HGR62     CG2R61     CG2R61      HGR61
   20    21    22    16	 9 ;     CG2R61     CG2R61     CG2R61     CG2R61
   20    21    22    49	 9 ;     CG2R61     CG2R61     CG2R61      HGR61
   48    21    22    16	 9 ;      HGR61     CG2R61     CG2R61     CG2R61
   48    21    22    49	 9 ;      HGR61     CG2R61     CG2R61      HGR61
   10    23    24    29	 9 ;      NG3P1      CG324     CG2R61     CG2R61
   10    23    24    25	 9 ;      NG3P1      CG324     CG2R61     CG2R61
   50    23    24    29	 9 ;       HGA2      CG324     CG2R61     CG2R61
   50    23    24    25	 9 ;       HGA2      CG324     CG2R61     CG2R61
   51    23    24    29	 9 ;       HGA2      CG324     CG2R61     CG2R61
   51    23    24    25	 9 ;       HGA2      CG324     CG2R61     CG2R61
   25    24    29    28	 9 ;     CG2R61     CG2R61     CG2R61     CG2R61
   25    24    29    55	 9 ;     CG2R61     CG2R61     CG2R61      HGR61
   23    24    29    28	 9 ;      CG324     CG2R61     CG2R61     CG2R61
   23    24    29    55	 9 ;      CG324     CG2R61     CG2R61      HGR61
   29    24    25    26	 9 ;     CG2R61     CG2R61     CG2R61     CG2R61
   29    24    25    52	 9 ;     CG2R61     CG2R61     CG2R61      HGR61
   23    24    25    26	 9 ;      CG324     CG2R61     CG2R61     CG2R61
   23    24    25    52	 9 ;      CG324     CG2R61     CG2R61      HGR61
   24    25    26    27	 9 ;     CG2R61     CG2R61     CG2R61     CG2R61
   24    25    26    30	 9 ;     CG2R61     CG2R61     CG2R61      OG301
   52    25    26    27	 9 ;      HGR61     CG2R61     CG2R61     CG2R61
   52    25    26    30	 9 ;      HGR61     CG2R61     CG2R61      OG301
   30    26    27    28	 9 ;      OG301     CG2R61     CG2R61     CG2R61
   30    26    27    53	 9 ;      OG301     CG2R61     CG2R61      HGR61
   25    26    27    28	 9 ;     CG2R61     CG2R61     CG2R61     CG2R61
   25    26    27    53	 9 ;     CG2R61     CG2R61     CG2R61      HGR61
   27    26    30    31	 9 ;     CG2R61     CG2R61      OG301      CG311
   25    26    30    31	 9 ;     CG2R61     CG2R61      OG301      CG311
   26    27    28    29	 9 ;     CG2R61     CG2R61     CG2R61     CG2R61
   26    27    28    54	 9 ;     CG2R61     CG2R61     CG2R61      HGR61
   53    27    28    29	 9 ;      HGR61     CG2R61     CG2R61     CG2R61
   53    27    28    54	 9 ;      HGR61     CG2R61     CG2R61      HGR61
   27    28    29    24	 9 ;     CG2R61     CG2R61     CG2R61     CG2R61
   27    28    29    55	 9 ;     CG2R61     CG2R61     CG2R61      HGR61
   54    28    29    24	 9 ;      HGR61     CG2R61     CG2R61     CG2R61
   54    28    29    55	 9 ;      HGR61     CG2R61     CG2R61      HGR61
   26    30    31    33	 9 ;     CG2R61      OG301      CG311      CG331
   26    30    31    32	 9 ;     CG2R61      OG301      CG311      CG331
   26    30    31    56	 9 ;     CG2R61      OG301      CG311       HGA1
   32    31    33    60	 9 ;      CG331      CG311      CG331       HGA3
   32    31    33    61	 9 ;      CG331      CG311      CG331       HGA3
   32    31    33    62	 9 ;      CG331      CG311      CG331       HGA3
   30    31    33    60	 9 ;      OG301      CG311      CG331       HGA3
   30    31    33    61	 9 ;      OG301      CG311      CG331       HGA3
   30    31    33    62	 9 ;      OG301      CG311      CG331       HGA3
   56    31    33    60	 9 ;       HGA1      CG311      CG331       HGA3
   56    31    33    61	 9 ;       HGA1      CG311      CG331       HGA3
   56    31    33    62	 9 ;       HGA1      CG311      CG331       HGA3
   33    31    32    57	 9 ;      CG331      CG311      CG331       HGA3
   33    31    32    58	 9 ;      CG331      CG311      CG331       HGA3
   33    31    32    59	 9 ;      CG331      CG311      CG331       HGA3
   30    31    32    57	 9 ;      OG301      CG311      CG331       HGA3
   30    31    32    58	 9 ;      OG301      CG311      CG331       HGA3
   30    31    32    59	 9 ;      OG301      CG311      CG331       HGA3
   56    31    32    57	 9 ;       HGA1      CG311      CG331       HGA3
   56    31    32    58	 9 ;       HGA1      CG311      CG331       HGA3
   56    31    32    59	 9 ;       HGA1      CG311      CG331       HGA3

