Good ROcking Metal Altar for Chronical Sinners
   62
    1LIG      S    1  -2.043   0.330  -1.658
    1LIG     O1    2  -2.050   0.474  -1.648
    1LIG     O2    3  -2.155   0.241  -1.646
    1LIG     N1    4  -1.960   0.291  -1.799
    1LIG     C1    5  -1.814   0.307  -1.780
    1LIG     C2    6  -1.782   0.314  -1.625
    1LIG     N2    7  -1.913   0.278  -1.562
    1LIG     C3    8  -1.732   0.456  -1.589
    1LIG     C4    9  -1.592   0.485  -1.647
    1LIG     N3   10  -1.492   0.383  -1.597
    1LIG     C5   11  -1.534   0.243  -1.638
    1LIG     C6   12  -1.674   0.210  -1.588
    1LIG     C7   13  -1.543   0.628  -1.623
    1LIG     H1   14  -1.991   0.198  -1.827
    1LIG     H2   15  -1.405   0.401  -1.648
    1LIG     C8   16  -1.942   0.253  -1.425
    1LIG     C9   17  -1.970   0.354  -1.334
    1LIG    C10   18  -2.014   0.320  -1.205
    1LIG      F   19  -2.042   0.418  -1.118
    1LIG    C11   20  -2.032   0.188  -1.166
    1LIG    C12   21  -2.008   0.087  -1.258
    1LIG    C13   22  -1.963   0.119  -1.387
    1LIG    C14   23  -1.449   0.397  -1.450
    1LIG    C15   24  -1.302   0.382  -1.420
    1LIG    C16   25  -1.253   0.257  -1.375
    1LIG    C17   26  -1.120   0.241  -1.338
    1LIG    C18   27  -1.032   0.349  -1.353
    1LIG    C19   28  -1.078   0.473  -1.396
    1LIG    C20   29  -1.213   0.490  -1.427
    1LIG     O3   30  -1.063   0.125  -1.295
    1LIG    C21   31  -1.006   0.029  -1.385
    1LIG    C22   32  -1.086  -0.003  -1.512
    1LIG    C23   33  -0.858   0.058  -1.412
    1LIG    HC2   34  -1.762   0.222  -1.824
    1LIG    HC3   35  -1.781   0.399  -1.829
    1LIG    HC4   36  -1.802   0.529  -1.629
    1LIG    HC5   37  -1.728   0.466  -1.480
    1LIG     HC   38  -1.599   0.472  -1.755
    1LIG    HC6   39  -1.464   0.171  -1.596
    1LIG    HC7   40  -1.532   0.236  -1.747
    1LIG    HC8   41  -1.704   0.114  -1.631
    1LIG    HC9   42  -1.671   0.200  -1.479
    1LIG    HC1   43  -1.589   0.695  -1.696
    1LIG   HC10   44  -1.571   0.659  -1.522
    1LIG   HC11   45  -1.435   0.631  -1.633
    1LIG   HC12   46  -1.959   0.458  -1.362
    1LIG   HC13   47  -2.065   0.164  -1.066
    1LIG   HC14   48  -2.023  -0.017  -1.231
    1LIG   HC15   49  -1.944   0.040  -1.458
    1LIG   HC16   50  -1.479   0.497  -1.417
    1LIG   HC17   51  -1.504   0.324  -1.391
    1LIG   HC18   52  -1.321   0.173  -1.368
    1LIG   HC19   53  -0.927   0.335  -1.330
    1LIG   HC20   54  -1.010   0.555  -1.405
    1LIG   HC21   55  -1.250   0.587  -1.457
    1LIG   HC22   56  -1.006  -0.064  -1.329
    1LIG   HC23   57  -1.190  -0.022  -1.485
    1LIG   HC24   58  -1.044  -0.091  -1.560
    1LIG   HC25   59  -1.081   0.082  -1.581
    1LIG   HC26   60  -0.808   0.080  -1.318
    1LIG   HC27   61  -0.849   0.143  -1.479
    1LIG   HC28   62  -0.812  -0.030  -1.458
   0.00000   0.00000   0.00000
