GROtesk MACabre and Sinister
   88
    1LIG     C1    1  -1.421   0.404  -1.617
    1LIG     C2    2  -1.368   0.357  -1.756
    1LIG     C3    3  -1.229   0.410  -1.795
    1LIG     C4    4  -1.217   0.560  -1.776
    1LIG     N1    5  -1.258   0.596  -1.640
    1LIG     C5    6  -1.397   0.559  -1.606
    1LIG     C6    7  -1.176   0.660  -1.550
    1LIG     O1    8  -1.213   0.694  -1.438
    1LIG     C7    9  -1.349   0.326  -1.499
    1LIG     C8   10  -1.303   0.192  -1.512
    1LIG     C9   11  -1.232   0.120  -1.411
    1LIG    C10   12  -1.207   0.187  -1.291
    1LIG    C11   13  -1.250   0.319  -1.273
    1LIG    C12   14  -1.320   0.388  -1.375
    1LIG    C13   15  -1.175  -0.022  -1.435
    1LIG    C14   16  -1.265  -0.094  -1.538
    1LIG    C15   17  -1.031  -0.021  -1.491
    1LIG    C16   18  -1.171  -0.107  -1.307
    1LIG     N2   19  -1.577   0.370  -1.615
    1LIG     H1   20  -1.610   0.422  -1.533
    1LIG     H2   21  -1.586   0.272  -1.589
    1LIG    C17   22  -1.683   0.405  -1.727
    1LIG    C18   23  -1.823   0.460  -1.680
    1LIG    C19   24  -1.839   0.536  -1.539
    1LIG    C20   25  -1.862   0.453  -1.410
    1LIG    C21   26  -1.996   0.387  -1.399
    1LIG    C22   27  -2.005   0.248  -1.412
    1LIG    C23   28  -2.128   0.186  -1.408
    1LIG     F1   29  -2.135   0.053  -1.425
    1LIG    C24   30  -2.245   0.258  -1.389
    1LIG    C25   31  -2.236   0.395  -1.370
    1LIG    C26   32  -2.113   0.461  -1.373
    1LIG     F2   33  -2.348   0.467  -1.350
    1LIG     N3   34  -1.739   0.640  -1.512
    1LIG    C27   35  -1.753   0.766  -1.566
    1LIG     O2   36  -1.860   0.807  -1.611
    1LIG    C28   37  -1.628   0.850  -1.570
    1LIG     H3   38  -1.644   0.609  -1.494
    1LIG     O3   39  -1.870   0.553  -1.780
    1LIG     H4   40  -1.936   0.612  -1.739
    1LIG     O4   41  -1.050   0.682  -1.599
    1LIG    C29   42  -0.971   0.787  -1.541
    1LIG    C30   43  -0.834   0.797  -1.604
    1LIG    C31   44  -0.755   0.912  -1.586
    1LIG    C32   45  -0.622   0.915  -1.629
    1LIG    C33   46  -0.566   0.804  -1.691
    1LIG    C34   47  -0.644   0.690  -1.713
    1LIG    C35   48  -0.777   0.687  -1.670
    1LIG    HC2   49  -1.363   0.248  -1.755
    1LIG    HC3   50  -1.439   0.387  -1.832
    1LIG    HC4   51  -1.211   0.386  -1.900
    1LIG    HC5   52  -1.154   0.360  -1.734
    1LIG    HC6   53  -1.114   0.591  -1.791
    1LIG    HC7   54  -1.281   0.611  -1.848
    1LIG    HC8   55  -1.417   0.591  -1.504
    1LIG    HC9   56  -1.465   0.611  -1.673
    1LIG     HC   57  -1.324   0.141  -1.604
    1LIG    HC1   58  -1.154   0.137  -1.211
    1LIG   HC10   59  -1.229   0.370  -1.180
    1LIG   HC11   60  -1.352   0.489  -1.357
    1LIG   HC12   61  -1.242  -0.200  -1.538
    1LIG   HC13   62  -1.370  -0.080  -1.510
    1LIG   HC14   63  -1.248  -0.052  -1.637
    1LIG   HC15   64  -1.027   0.038  -1.582
    1LIG   HC16   65  -0.964   0.023  -1.417
    1LIG   HC17   66  -0.999  -0.123  -1.512
    1LIG   HC18   67  -1.271  -0.111  -1.263
    1LIG   HC19   68  -1.102  -0.062  -1.235
    1LIG   HC20   69  -1.138  -0.208  -1.331
    1LIG   HC21   70  -1.702   0.315  -1.784
    1LIG   HC22   71  -1.639   0.479  -1.794
    1LIG   HC23   72  -1.892   0.376  -1.680
    1LIG   HC24   73  -1.932   0.592  -1.551
    1LIG   HC25   74  -1.851   0.521  -1.325
    1LIG   HC26   75  -1.785   0.377  -1.404
    1LIG   HC27   76  -1.915   0.189  -1.425
    1LIG   HC28   77  -2.341   0.208  -1.389
    1LIG   HC29   78  -2.108   0.567  -1.357
    1LIG   HC30   79  -1.654   0.955  -1.561
    1LIG   HC31   80  -1.576   0.833  -1.664
    1LIG   HC32   81  -1.563   0.822  -1.487
    1LIG   HC33   82  -1.023   0.882  -1.554
    1LIG   HC34   83  -0.959   0.767  -1.434
    1LIG   HC35   84  -0.798   0.999  -1.538
    1LIG   HC36   85  -0.563   1.004  -1.614
    1LIG   HC37   86  -0.463   0.805  -1.722
    1LIG   HC38   87  -0.601   0.605  -1.763
    1LIG   HC39   88  -0.836   0.599  -1.687
   0.00000   0.00000   0.00000
