; Created by cgenff_charmm2gmx.py

[ moleculetype ]
; Name			   nrexcl
LIG				 3

[ atoms ]
;	 nr		  type	resnr residue  atom   cgnr	   charge		mass  typeB    chargeB		massB
; residue	 1 LIG rtp LIG q	qsum
     1      CG301      1    LIG     C1      1      0.292     12.011   ;
     2      CG321      1    LIG     C2      2     -0.156     12.011   ;
     3      CG321      1    LIG     C3      3     -0.192     12.011   ;
     4      CG321      1    LIG     C4      4      0.115     12.011   ;
     5      NG2S0      1    LIG     N1      5     -0.689     14.007   ;
     6      CG321      1    LIG     C5      6      0.234     12.011   ;
     7      CG2O6      1    LIG     C6      7      0.451     12.011   ;
     8      OG2D1      1    LIG     O1      8     -0.478     15.999   ;
     9     CG2R61      1    LIG     C7      9      0.079     12.011   ;
    10     CG2R61      1    LIG     C8     10     -0.134     12.011   ;
    11     CG2R61      1    LIG     C9     11      0.082     12.011   ;
    12     CG2R61      1    LIG    C10     12     -0.121     12.011   ;
    13     CG2R61      1    LIG    C11     13     -0.110     12.011   ;
    14     CG2R61      1    LIG    C12     14     -0.129     12.011   ;
    15      CG301      1    LIG    C13     15     -0.018     12.011   ;
    16      CG331      1    LIG    C14     16     -0.289     12.011   ;
    17      CG331      1    LIG    C15     17     -0.289     12.011   ;
    18      CG331      1    LIG    C16     18     -0.289     12.011   ;
    19      NG3P2      1    LIG     N2     19     -0.425     14.007   ;
    20       HGP2      1    LIG     H1     20      0.341      1.008   ;
    21       HGP2      1    LIG     H2     21      0.341      1.008   ;
    22      CG324      1    LIG    C17     22      0.208     12.011   ;
    23      CG311      1    LIG    C18     23      0.089     12.011   ;
    24      CG311      1    LIG    C19     24     -0.007     12.011   ;
    25      CG321      1    LIG    C20     25     -0.153     12.011   ;
    26     CG2R61      1    LIG    C21     26      0.057     12.011   ;
    27     CG2R61      1    LIG    C22     27     -0.218     12.011   ;
    28     CG2R66      1    LIG    C23     28      0.261     12.011   ;
    29       FGR1      1    LIG     F1     29     -0.210     18.998   ;
    30     CG2R61      1    LIG    C24     30     -0.240     12.011   ;
    31     CG2R66      1    LIG    C25     31      0.261     12.011   ;
    32     CG2R61      1    LIG    C26     32     -0.218     12.011   ;
    33       FGR1      1    LIG     F2     33     -0.210     18.998   ;
    34      NG2S1      1    LIG     N3     34     -0.339     14.007   ;
    35      CG2O1      1    LIG    C27     35      0.488     12.011   ;
    36      OG2D1      1    LIG     O2     36     -0.509     15.999   ;
    37      CG331      1    LIG    C28     37     -0.270     12.011   ;
    38       HGP1      1    LIG     H3     38      0.261      1.008   ;
    39      OG311      1    LIG     O3     39     -0.625     15.999   ;
    40       HGP1      1    LIG     H4     40      0.415      1.008   ;
    41      OG302      1    LIG     O4     41     -0.197     15.999   ;
    42      CG321      1    LIG    C29     42      0.021     12.011   ;
    43     CG2R61      1    LIG    C30     43      0.007     12.011   ;
    44     CG2R61      1    LIG    C31     44     -0.123     12.011   ;
    45     CG2R61      1    LIG    C32     45     -0.112     12.011   ;
    46     CG2R61      1    LIG    C33     46     -0.116     12.011   ;
    47     CG2R61      1    LIG    C34     47     -0.112     12.011   ;
    48     CG2R61      1    LIG    C35     48     -0.123     12.011   ;
    49       HGA2      1    LIG    HC2     49      0.090      1.008   ;
    50       HGA2      1    LIG    HC3     50      0.090      1.008   ;
    51       HGA2      1    LIG    HC4     51      0.090      1.008   ;
    52       HGA2      1    LIG    HC5     52      0.090      1.008   ;
    53       HGA2      1    LIG    HC6     53      0.090      1.008   ;
    54       HGA2      1    LIG    HC7     54      0.090      1.008   ;
    55       HGA2      1    LIG    HC8     55      0.090      1.008   ;
    56       HGA2      1    LIG    HC9     56      0.090      1.008   ;
    57      HGR61      1    LIG     HC     57      0.116      1.008   ;
    58      HGR61      1    LIG    HC1     58      0.116      1.008   ;
    59      HGR61      1    LIG   HC10     59      0.116      1.008   ;
    60      HGR61      1    LIG   HC11     60      0.116      1.008   ;
    61       HGA3      1    LIG   HC12     61      0.090      1.008   ;
    62       HGA3      1    LIG   HC13     62      0.090      1.008   ;
    63       HGA3      1    LIG   HC14     63      0.090      1.008   ;
    64       HGA3      1    LIG   HC15     64      0.090      1.008   ;
    65       HGA3      1    LIG   HC16     65      0.090      1.008   ;
    66       HGA3      1    LIG   HC17     66      0.090      1.008   ;
    67       HGA3      1    LIG   HC18     67      0.090      1.008   ;
    68       HGA3      1    LIG   HC19     68      0.090      1.008   ;
    69       HGA3      1    LIG   HC20     69      0.090      1.008   ;
    70       HGA2      1    LIG   HC21     70      0.090      1.008   ;
    71       HGA2      1    LIG   HC22     71      0.090      1.008   ;
    72       HGA1      1    LIG   HC23     72      0.090      1.008   ;
    73       HGA1      1    LIG   HC24     73      0.090      1.008   ;
    74       HGA2      1    LIG   HC25     74      0.090      1.008   ;
    75       HGA2      1    LIG   HC26     75      0.090      1.008   ;
    76      HGR62      1    LIG   HC27     76      0.174      1.008   ;
    77      HGR62      1    LIG   HC28     77      0.186      1.008   ;
    78      HGR62      1    LIG   HC29     78      0.174      1.008   ;
    79       HGA3      1    LIG   HC30     79      0.090      1.008   ;
    80       HGA3      1    LIG   HC31     80      0.090      1.008   ;
    81       HGA3      1    LIG   HC32     81      0.090      1.008   ;
    82       HGA2      1    LIG   HC33     82      0.090      1.008   ;
    83       HGA2      1    LIG   HC34     83      0.090      1.008   ;
    84      HGR61      1    LIG   HC35     84      0.116      1.008   ;
    85      HGR61      1    LIG   HC36     85      0.116      1.008   ;
    86      HGR61      1    LIG   HC37     86      0.116      1.008   ;
    87      HGR61      1    LIG   HC38     87      0.116      1.008   ;
    88      HGR61      1    LIG   HC39     88      0.116      1.008   ;

[ bonds ]
;	ai	  aj funct			  c0			c1			  c2			c3
    1     2	 1 ;       CG301      CG321
    1     6	 1 ;       CG301      CG321
    1     9	 1 ;       CG301     CG2R61
    1    19	 1 ;       CG301      NG3P2
    2     3	 1 ;       CG321      CG321
    2    49	 1 ;       CG321       HGA2
    2    50	 1 ;       CG321       HGA2
    3     4	 1 ;       CG321      CG321
    3    51	 1 ;       CG321       HGA2
    3    52	 1 ;       CG321       HGA2
    4     5	 1 ;       CG321      NG2S0
    4    53	 1 ;       CG321       HGA2
    4    54	 1 ;       CG321       HGA2
    5     7	 1 ;       NG2S0      CG2O6
    5     6	 1 ;       NG2S0      CG321
    6    55	 1 ;       CG321       HGA2
    6    56	 1 ;       CG321       HGA2
    7    41	 1 ;       CG2O6      OG302
    7     8	 1 ;       CG2O6      OG2D1
    9    10	 1 ;      CG2R61     CG2R61
    9    14	 1 ;      CG2R61     CG2R61
   10    11	 1 ;      CG2R61     CG2R61
   10    57	 1 ;      CG2R61      HGR61
   11    15	 1 ;      CG2R61      CG301
   11    12	 1 ;      CG2R61     CG2R61
   12    13	 1 ;      CG2R61     CG2R61
   12    58	 1 ;      CG2R61      HGR61
   13    14	 1 ;      CG2R61     CG2R61
   13    59	 1 ;      CG2R61      HGR61
   14    60	 1 ;      CG2R61      HGR61
   15    17	 1 ;       CG301      CG331
   15    16	 1 ;       CG301      CG331
   15    18	 1 ;       CG301      CG331
   16    61	 1 ;       CG331       HGA3
   16    62	 1 ;       CG331       HGA3
   16    63	 1 ;       CG331       HGA3
   17    64	 1 ;       CG331       HGA3
   17    65	 1 ;       CG331       HGA3
   17    66	 1 ;       CG331       HGA3
   18    67	 1 ;       CG331       HGA3
   18    68	 1 ;       CG331       HGA3
   18    69	 1 ;       CG331       HGA3
   19    22	 1 ;       NG3P2      CG324
   19    21	 1 ;       NG3P2       HGP2
   19    20	 1 ;       NG3P2       HGP2
   22    23	 1 ;       CG324      CG311
   22    70	 1 ;       CG324       HGA2
   22    71	 1 ;       CG324       HGA2
   23    39	 1 ;       CG311      OG311
   23    24	 1 ;       CG311      CG311
   23    72	 1 ;       CG311       HGA1
   24    34	 1 ;       CG311      NG2S1
   24    25	 1 ;       CG311      CG321
   24    73	 1 ;       CG311       HGA1
   25    26	 1 ;       CG321     CG2R61
   25    74	 1 ;       CG321       HGA2
   25    75	 1 ;       CG321       HGA2
   26    27	 1 ;      CG2R61     CG2R61
   26    32	 1 ;      CG2R61     CG2R61
   27    28	 1 ;      CG2R61     CG2R66
   27    76	 1 ;      CG2R61      HGR62
   28    29	 1 ;      CG2R66       FGR1
   28    30	 1 ;      CG2R66     CG2R61
   30    31	 1 ;      CG2R61     CG2R66
   30    77	 1 ;      CG2R61      HGR62
   31    32	 1 ;      CG2R66     CG2R61
   31    33	 1 ;      CG2R66       FGR1
   32    78	 1 ;      CG2R61      HGR62
   34    38	 1 ;       NG2S1       HGP1
   34    35	 1 ;       NG2S1      CG2O1
   35    37	 1 ;       CG2O1      CG331
   35    36	 1 ;       CG2O1      OG2D1
   37    79	 1 ;       CG331       HGA3
   37    80	 1 ;       CG331       HGA3
   37    81	 1 ;       CG331       HGA3
   39    40	 1 ;       OG311       HGP1
   41    42	 1 ;       OG302      CG321
   42    43	 1 ;       CG321     CG2R61
   42    82	 1 ;       CG321       HGA2
   42    83	 1 ;       CG321       HGA2
   43    44	 1 ;      CG2R61     CG2R61
   43    48	 1 ;      CG2R61     CG2R61
   44    45	 1 ;      CG2R61     CG2R61
   44    84	 1 ;      CG2R61      HGR61
   45    46	 1 ;      CG2R61     CG2R61
   45    85	 1 ;      CG2R61      HGR61
   46    47	 1 ;      CG2R61     CG2R61
   46    86	 1 ;      CG2R61      HGR61
   47    48	 1 ;      CG2R61     CG2R61
   47    87	 1 ;      CG2R61      HGR61
   48    88	 1 ;      CG2R61      HGR61

[ pairs ]
;	ai	  aj funct			  c0			c1			  c2			c3
    1     4	 1
    1    51	 1
    1    52	 1
    1     7	 1
    1    11	 1
    1    57	 1
    1    13	 1
    1    60	 1
    1    23	 1
    1    70	 1
    1    71	 1
    2     5	 1
    2    55	 1
    2    56	 1
    2    10	 1
    2    14	 1
    2    22	 1
    2    21	 1
    2    20	 1
    2    53	 1
    2    54	 1
    3     6	 1
    3     9	 1
    3    19	 1
    3     7	 1
    4    49	 1
    4    50	 1
    4    41	 1
    4     8	 1
    4    55	 1
    4    56	 1
    5     9	 1
    5    19	 1
    5    51	 1
    5    52	 1
    5    42	 1
    6    49	 1
    6    50	 1
    6    10	 1
    6    14	 1
    6    22	 1
    6    21	 1
    6    20	 1
    6    53	 1
    6    54	 1
    6    41	 1
    6     8	 1
    7    53	 1
    7    54	 1
    7    55	 1
    7    56	 1
    7    43	 1
    7    82	 1
    7    83	 1
    8    42	 1
    9    49	 1
    9    50	 1
    9    55	 1
    9    56	 1
    9    22	 1
    9    21	 1
    9    20	 1
    9    15	 1
    9    12	 1
    9    59	 1
   10    19	 1
   10    13	 1
   10    60	 1
   10    17	 1
   10    16	 1
   10    18	 1
   10    58	 1
   11    14	 1
   11    59	 1
   11    64	 1
   11    65	 1
   11    66	 1
   11    61	 1
   11    62	 1
   11    63	 1
   11    67	 1
   11    68	 1
   11    69	 1
   12    57	 1
   12    17	 1
   12    16	 1
   12    18	 1
   12    60	 1
   13    15	 1
   14    19	 1
   14    57	 1
   14    58	 1
   15    57	 1
   15    58	 1
   16    64	 1
   16    65	 1
   16    66	 1
   16    67	 1
   16    68	 1
   16    69	 1
   17    61	 1
   17    62	 1
   17    63	 1
   17    67	 1
   17    68	 1
   17    69	 1
   18    64	 1
   18    65	 1
   18    66	 1
   18    61	 1
   18    62	 1
   18    63	 1
   19    49	 1
   19    50	 1
   19    55	 1
   19    56	 1
   19    39	 1
   19    24	 1
   19    72	 1
   20    23	 1
   20    70	 1
   20    71	 1
   21    23	 1
   21    70	 1
   21    71	 1
   22    40	 1
   22    34	 1
   22    25	 1
   22    73	 1
   23    38	 1
   23    35	 1
   23    26	 1
   23    74	 1
   23    75	 1
   24    70	 1
   24    71	 1
   24    40	 1
   24    27	 1
   24    32	 1
   24    37	 1
   24    36	 1
   25    39	 1
   25    72	 1
   25    38	 1
   25    35	 1
   25    28	 1
   25    76	 1
   25    31	 1
   25    78	 1
   26    34	 1
   26    73	 1
   26    29	 1
   26    30	 1
   26    33	 1
   27    74	 1
   27    75	 1
   27    31	 1
   27    78	 1
   27    77	 1
   28    32	 1
   28    33	 1
   29    76	 1
   29    31	 1
   29    77	 1
   30    76	 1
   30    78	 1
   32    74	 1
   32    75	 1
   32    76	 1
   32    77	 1
   33    77	 1
   33    78	 1
   34    39	 1
   34    72	 1
   34    74	 1
   34    75	 1
   34    79	 1
   34    80	 1
   34    81	 1
   35    73	 1
   36    38	 1
   36    79	 1
   36    80	 1
   36    81	 1
   37    38	 1
   38    73	 1
   39    70	 1
   39    71	 1
   39    73	 1
   40    72	 1
   41    44	 1
   41    48	 1
   42    45	 1
   42    84	 1
   42    47	 1
   42    88	 1
   43    46	 1
   43    85	 1
   43    87	 1
   44    82	 1
   44    83	 1
   44    47	 1
   44    88	 1
   44    86	 1
   45    48	 1
   45    87	 1
   46    84	 1
   46    88	 1
   47    85	 1
   48    82	 1
   48    83	 1
   48    84	 1
   48    86	 1
   49    51	 1
   49    52	 1
   50    51	 1
   50    52	 1
   51    53	 1
   51    54	 1
   52    53	 1
   52    54	 1
   58    59	 1
   59    60	 1
   70    72	 1
   71    72	 1
   72    73	 1
   73    74	 1
   73    75	 1
   84    85	 1
   85    86	 1
   86    87	 1
   87    88	 1

[ angles ]
;	ai	  aj	ak funct			c0			  c1			c2			  c3
    2     1     6	5 ;      CG321      CG301      CG321
    2     1     9	5 ;      CG321      CG301     CG2R61
    2     1    19	5 ;      CG321      CG301      NG3P2
    6     1     9	5 ;      CG321      CG301     CG2R61
    6     1    19	5 ;      CG321      CG301      NG3P2
    9     1    19	5 ;     CG2R61      CG301      NG3P2
    3     2     1	5 ;      CG321      CG321      CG301
    3     2    49	5 ;      CG321      CG321       HGA2
    3     2    50	5 ;      CG321      CG321       HGA2
    1     2    49	5 ;      CG301      CG321       HGA2
    1     2    50	5 ;      CG301      CG321       HGA2
   49     2    50	5 ;       HGA2      CG321       HGA2
    4     3     2	5 ;      CG321      CG321      CG321
    4     3    51	5 ;      CG321      CG321       HGA2
    4     3    52	5 ;      CG321      CG321       HGA2
    2     3    51	5 ;      CG321      CG321       HGA2
    2     3    52	5 ;      CG321      CG321       HGA2
   51     3    52	5 ;       HGA2      CG321       HGA2
    3     4     5	5 ;      CG321      CG321      NG2S0
    3     4    53	5 ;      CG321      CG321       HGA2
    3     4    54	5 ;      CG321      CG321       HGA2
    5     4    53	5 ;      NG2S0      CG321       HGA2
    5     4    54	5 ;      NG2S0      CG321       HGA2
   53     4    54	5 ;       HGA2      CG321       HGA2
    4     5     7	5 ;      CG321      NG2S0      CG2O6
    4     5     6	5 ;      CG321      NG2S0      CG321
    7     5     6	5 ;      CG2O6      NG2S0      CG321
    5     6     1	5 ;      NG2S0      CG321      CG301
    5     6    55	5 ;      NG2S0      CG321       HGA2
    5     6    56	5 ;      NG2S0      CG321       HGA2
    1     6    55	5 ;      CG301      CG321       HGA2
    1     6    56	5 ;      CG301      CG321       HGA2
   55     6    56	5 ;       HGA2      CG321       HGA2
   41     7     5	5 ;      OG302      CG2O6      NG2S0
   41     7     8	5 ;      OG302      CG2O6      OG2D1
    5     7     8	5 ;      NG2S0      CG2O6      OG2D1
    1     9    10	5 ;      CG301     CG2R61     CG2R61
    1     9    14	5 ;      CG301     CG2R61     CG2R61
   10     9    14	5 ;     CG2R61     CG2R61     CG2R61
   11    10     9	5 ;     CG2R61     CG2R61     CG2R61
   11    10    57	5 ;     CG2R61     CG2R61      HGR61
    9    10    57	5 ;     CG2R61     CG2R61      HGR61
   15    11    10	5 ;      CG301     CG2R61     CG2R61
   15    11    12	5 ;      CG301     CG2R61     CG2R61
   10    11    12	5 ;     CG2R61     CG2R61     CG2R61
   11    12    13	5 ;     CG2R61     CG2R61     CG2R61
   11    12    58	5 ;     CG2R61     CG2R61      HGR61
   13    12    58	5 ;     CG2R61     CG2R61      HGR61
   12    13    14	5 ;     CG2R61     CG2R61     CG2R61
   12    13    59	5 ;     CG2R61     CG2R61      HGR61
   14    13    59	5 ;     CG2R61     CG2R61      HGR61
    9    14    13	5 ;     CG2R61     CG2R61     CG2R61
    9    14    60	5 ;     CG2R61     CG2R61      HGR61
   13    14    60	5 ;     CG2R61     CG2R61      HGR61
   17    15    16	5 ;      CG331      CG301      CG331
   17    15    11	5 ;      CG331      CG301     CG2R61
   17    15    18	5 ;      CG331      CG301      CG331
   16    15    11	5 ;      CG331      CG301     CG2R61
   16    15    18	5 ;      CG331      CG301      CG331
   11    15    18	5 ;     CG2R61      CG301      CG331
   15    16    61	5 ;      CG301      CG331       HGA3
   15    16    62	5 ;      CG301      CG331       HGA3
   15    16    63	5 ;      CG301      CG331       HGA3
   61    16    62	5 ;       HGA3      CG331       HGA3
   61    16    63	5 ;       HGA3      CG331       HGA3
   62    16    63	5 ;       HGA3      CG331       HGA3
   15    17    64	5 ;      CG301      CG331       HGA3
   15    17    65	5 ;      CG301      CG331       HGA3
   15    17    66	5 ;      CG301      CG331       HGA3
   64    17    65	5 ;       HGA3      CG331       HGA3
   64    17    66	5 ;       HGA3      CG331       HGA3
   65    17    66	5 ;       HGA3      CG331       HGA3
   15    18    67	5 ;      CG301      CG331       HGA3
   15    18    68	5 ;      CG301      CG331       HGA3
   15    18    69	5 ;      CG301      CG331       HGA3
   67    18    68	5 ;       HGA3      CG331       HGA3
   67    18    69	5 ;       HGA3      CG331       HGA3
   68    18    69	5 ;       HGA3      CG331       HGA3
    1    19    22	5 ;      CG301      NG3P2      CG324
    1    19    21	5 ;      CG301      NG3P2       HGP2
    1    19    20	5 ;      CG301      NG3P2       HGP2
   22    19    21	5 ;      CG324      NG3P2       HGP2
   22    19    20	5 ;      CG324      NG3P2       HGP2
   21    19    20	5 ;       HGP2      NG3P2       HGP2
   19    22    23	5 ;      NG3P2      CG324      CG311
   19    22    70	5 ;      NG3P2      CG324       HGA2
   19    22    71	5 ;      NG3P2      CG324       HGA2
   23    22    70	5 ;      CG311      CG324       HGA2
   23    22    71	5 ;      CG311      CG324       HGA2
   70    22    71	5 ;       HGA2      CG324       HGA2
   22    23    39	5 ;      CG324      CG311      OG311
   22    23    24	5 ;      CG324      CG311      CG311
   22    23    72	5 ;      CG324      CG311       HGA1
   39    23    24	5 ;      OG311      CG311      CG311
   39    23    72	5 ;      OG311      CG311       HGA1
   24    23    72	5 ;      CG311      CG311       HGA1
   34    24    23	5 ;      NG2S1      CG311      CG311
   34    24    25	5 ;      NG2S1      CG311      CG321
   34    24    73	5 ;      NG2S1      CG311       HGA1
   23    24    25	5 ;      CG311      CG311      CG321
   23    24    73	5 ;      CG311      CG311       HGA1
   25    24    73	5 ;      CG321      CG311       HGA1
   24    25    26	5 ;      CG311      CG321     CG2R61
   24    25    74	5 ;      CG311      CG321       HGA2
   24    25    75	5 ;      CG311      CG321       HGA2
   26    25    74	5 ;     CG2R61      CG321       HGA2
   26    25    75	5 ;     CG2R61      CG321       HGA2
   74    25    75	5 ;       HGA2      CG321       HGA2
   25    26    27	5 ;      CG321     CG2R61     CG2R61
   25    26    32	5 ;      CG321     CG2R61     CG2R61
   27    26    32	5 ;     CG2R61     CG2R61     CG2R61
   26    27    28	5 ;     CG2R61     CG2R61     CG2R66
   26    27    76	5 ;     CG2R61     CG2R61      HGR62
   28    27    76	5 ;     CG2R66     CG2R61      HGR62
   27    28    29	5 ;     CG2R61     CG2R66       FGR1
   27    28    30	5 ;     CG2R61     CG2R66     CG2R61
   29    28    30	5 ;       FGR1     CG2R66     CG2R61
   28    30    31	5 ;     CG2R66     CG2R61     CG2R66
   28    30    77	5 ;     CG2R66     CG2R61      HGR62
   31    30    77	5 ;     CG2R66     CG2R61      HGR62
   32    31    30	5 ;     CG2R61     CG2R66     CG2R61
   32    31    33	5 ;     CG2R61     CG2R66       FGR1
   30    31    33	5 ;     CG2R61     CG2R66       FGR1
   26    32    31	5 ;     CG2R61     CG2R61     CG2R66
   26    32    78	5 ;     CG2R61     CG2R61      HGR62
   31    32    78	5 ;     CG2R66     CG2R61      HGR62
   38    34    35	5 ;       HGP1      NG2S1      CG2O1
   38    34    24	5 ;       HGP1      NG2S1      CG311
   35    34    24	5 ;      CG2O1      NG2S1      CG311
   37    35    34	5 ;      CG331      CG2O1      NG2S1
   37    35    36	5 ;      CG331      CG2O1      OG2D1
   34    35    36	5 ;      NG2S1      CG2O1      OG2D1
   35    37    79	5 ;      CG2O1      CG331       HGA3
   35    37    80	5 ;      CG2O1      CG331       HGA3
   35    37    81	5 ;      CG2O1      CG331       HGA3
   79    37    80	5 ;       HGA3      CG331       HGA3
   79    37    81	5 ;       HGA3      CG331       HGA3
   80    37    81	5 ;       HGA3      CG331       HGA3
   23    39    40	5 ;      CG311      OG311       HGP1
   42    41     7	5 ;      CG321      OG302      CG2O6
   43    42    41	5 ;     CG2R61      CG321      OG302
   43    42    82	5 ;     CG2R61      CG321       HGA2
   43    42    83	5 ;     CG2R61      CG321       HGA2
   41    42    82	5 ;      OG302      CG321       HGA2
   41    42    83	5 ;      OG302      CG321       HGA2
   82    42    83	5 ;       HGA2      CG321       HGA2
   44    43    48	5 ;     CG2R61     CG2R61     CG2R61
   44    43    42	5 ;     CG2R61     CG2R61      CG321
   48    43    42	5 ;     CG2R61     CG2R61      CG321
   45    44    43	5 ;     CG2R61     CG2R61     CG2R61
   45    44    84	5 ;     CG2R61     CG2R61      HGR61
   43    44    84	5 ;     CG2R61     CG2R61      HGR61
   46    45    44	5 ;     CG2R61     CG2R61     CG2R61
   46    45    85	5 ;     CG2R61     CG2R61      HGR61
   44    45    85	5 ;     CG2R61     CG2R61      HGR61
   45    46    47	5 ;     CG2R61     CG2R61     CG2R61
   45    46    86	5 ;     CG2R61     CG2R61      HGR61
   47    46    86	5 ;     CG2R61     CG2R61      HGR61
   46    47    48	5 ;     CG2R61     CG2R61     CG2R61
   46    47    87	5 ;     CG2R61     CG2R61      HGR61
   48    47    87	5 ;     CG2R61     CG2R61      HGR61
   47    48    43	5 ;     CG2R61     CG2R61     CG2R61
   47    48    88	5 ;     CG2R61     CG2R61      HGR61
   43    48    88	5 ;     CG2R61     CG2R61      HGR61

[ dihedrals ]
;	ai	  aj	ak	  al funct			  c0			c1			  c2			c3			  c4			c5
    6     1     2     3	 9 ;      CG321      CG301      CG321      CG321
    6     1     2    49	 9 ;      CG321      CG301      CG321       HGA2
    6     1     2    50	 9 ;      CG321      CG301      CG321       HGA2
    9     1     2     3	 9 ;     CG2R61      CG301      CG321      CG321
    9     1     2    49	 9 ;     CG2R61      CG301      CG321       HGA2
    9     1     2    50	 9 ;     CG2R61      CG301      CG321       HGA2
   19     1     2     3	 9 ;      NG3P2      CG301      CG321      CG321
   19     1     2    49	 9 ;      NG3P2      CG301      CG321       HGA2
   19     1     2    50	 9 ;      NG3P2      CG301      CG321       HGA2
    2     1     6     5	 9 ;      CG321      CG301      CG321      NG2S0
    2     1     6    55	 9 ;      CG321      CG301      CG321       HGA2
    2     1     6    56	 9 ;      CG321      CG301      CG321       HGA2
    9     1     6     5	 9 ;     CG2R61      CG301      CG321      NG2S0
    9     1     6    55	 9 ;     CG2R61      CG301      CG321       HGA2
    9     1     6    56	 9 ;     CG2R61      CG301      CG321       HGA2
   19     1     6     5	 9 ;      NG3P2      CG301      CG321      NG2S0
   19     1     6    55	 9 ;      NG3P2      CG301      CG321       HGA2
   19     1     6    56	 9 ;      NG3P2      CG301      CG321       HGA2
    2     1     9    10	 9 ;      CG321      CG301     CG2R61     CG2R61
    2     1     9    14	 9 ;      CG321      CG301     CG2R61     CG2R61
    6     1     9    10	 9 ;      CG321      CG301     CG2R61     CG2R61
    6     1     9    14	 9 ;      CG321      CG301     CG2R61     CG2R61
   19     1     9    10	 9 ;      NG3P2      CG301     CG2R61     CG2R61
   19     1     9    14	 9 ;      NG3P2      CG301     CG2R61     CG2R61
    2     1    19    22	 9 ;      CG321      CG301      NG3P2      CG324
    2     1    19    21	 9 ;      CG321      CG301      NG3P2       HGP2
    2     1    19    20	 9 ;      CG321      CG301      NG3P2       HGP2
    6     1    19    22	 9 ;      CG321      CG301      NG3P2      CG324
    6     1    19    21	 9 ;      CG321      CG301      NG3P2       HGP2
    6     1    19    20	 9 ;      CG321      CG301      NG3P2       HGP2
    9     1    19    22	 9 ;     CG2R61      CG301      NG3P2      CG324
    9     1    19    21	 9 ;     CG2R61      CG301      NG3P2       HGP2
    9     1    19    20	 9 ;     CG2R61      CG301      NG3P2       HGP2
    1     2     3     4	 9 ;      CG301      CG321      CG321      CG321
    1     2     3    51	 9 ;      CG301      CG321      CG321       HGA2
    1     2     3    52	 9 ;      CG301      CG321      CG321       HGA2
   49     2     3     4	 9 ;       HGA2      CG321      CG321      CG321
   49     2     3    51	 9 ;       HGA2      CG321      CG321       HGA2
   49     2     3    52	 9 ;       HGA2      CG321      CG321       HGA2
   50     2     3     4	 9 ;       HGA2      CG321      CG321      CG321
   50     2     3    51	 9 ;       HGA2      CG321      CG321       HGA2
   50     2     3    52	 9 ;       HGA2      CG321      CG321       HGA2
    2     3     4     5	 9 ;      CG321      CG321      CG321      NG2S0
    2     3     4    53	 9 ;      CG321      CG321      CG321       HGA2
    2     3     4    54	 9 ;      CG321      CG321      CG321       HGA2
   51     3     4     5	 9 ;       HGA2      CG321      CG321      NG2S0
   51     3     4    53	 9 ;       HGA2      CG321      CG321       HGA2
   51     3     4    54	 9 ;       HGA2      CG321      CG321       HGA2
   52     3     4     5	 9 ;       HGA2      CG321      CG321      NG2S0
   52     3     4    53	 9 ;       HGA2      CG321      CG321       HGA2
   52     3     4    54	 9 ;       HGA2      CG321      CG321       HGA2
    3     4     5     7	 9 ;      CG321      CG321      NG2S0      CG2O6
    3     4     5     6	 9 ;      CG321      CG321      NG2S0      CG321
   53     4     5     7	 9 ;       HGA2      CG321      NG2S0      CG2O6
   53     4     5     6	 9 ;       HGA2      CG321      NG2S0      CG321
   54     4     5     7	 9 ;       HGA2      CG321      NG2S0      CG2O6
   54     4     5     6	 9 ;       HGA2      CG321      NG2S0      CG321
    4     5     7    41	 9 ;      CG321      NG2S0      CG2O6      OG302
    4     5     7     8	 9 ;      CG321      NG2S0      CG2O6      OG2D1
    6     5     7    41	 9 ;      CG321      NG2S0      CG2O6      OG302
    6     5     7     8	 9 ;      CG321      NG2S0      CG2O6      OG2D1
    4     5     6     1	 9 ;      CG321      NG2S0      CG321      CG301
    4     5     6    55	 9 ;      CG321      NG2S0      CG321       HGA2
    4     5     6    56	 9 ;      CG321      NG2S0      CG321       HGA2
    7     5     6     1	 9 ;      CG2O6      NG2S0      CG321      CG301
    7     5     6    55	 9 ;      CG2O6      NG2S0      CG321       HGA2
    7     5     6    56	 9 ;      CG2O6      NG2S0      CG321       HGA2
    5     7    41    42	 9 ;      NG2S0      CG2O6      OG302      CG321
    8     7    41    42	 9 ;      OG2D1      CG2O6      OG302      CG321
    1     9    10    11	 9 ;      CG301     CG2R61     CG2R61     CG2R61
    1     9    10    57	 9 ;      CG301     CG2R61     CG2R61      HGR61
   14     9    10    11	 9 ;     CG2R61     CG2R61     CG2R61     CG2R61
   14     9    10    57	 9 ;     CG2R61     CG2R61     CG2R61      HGR61
    1     9    14    13	 9 ;      CG301     CG2R61     CG2R61     CG2R61
    1     9    14    60	 9 ;      CG301     CG2R61     CG2R61      HGR61
   10     9    14    13	 9 ;     CG2R61     CG2R61     CG2R61     CG2R61
   10     9    14    60	 9 ;     CG2R61     CG2R61     CG2R61      HGR61
    9    10    11    15	 9 ;     CG2R61     CG2R61     CG2R61      CG301
    9    10    11    12	 9 ;     CG2R61     CG2R61     CG2R61     CG2R61
   57    10    11    15	 9 ;      HGR61     CG2R61     CG2R61      CG301
   57    10    11    12	 9 ;      HGR61     CG2R61     CG2R61     CG2R61
   10    11    15    17	 9 ;     CG2R61     CG2R61      CG301      CG331
   10    11    15    16	 9 ;     CG2R61     CG2R61      CG301      CG331
   10    11    15    18	 9 ;     CG2R61     CG2R61      CG301      CG331
   12    11    15    17	 9 ;     CG2R61     CG2R61      CG301      CG331
   12    11    15    16	 9 ;     CG2R61     CG2R61      CG301      CG331
   12    11    15    18	 9 ;     CG2R61     CG2R61      CG301      CG331
   15    11    12    13	 9 ;      CG301     CG2R61     CG2R61     CG2R61
   15    11    12    58	 9 ;      CG301     CG2R61     CG2R61      HGR61
   10    11    12    13	 9 ;     CG2R61     CG2R61     CG2R61     CG2R61
   10    11    12    58	 9 ;     CG2R61     CG2R61     CG2R61      HGR61
   11    12    13    14	 9 ;     CG2R61     CG2R61     CG2R61     CG2R61
   11    12    13    59	 9 ;     CG2R61     CG2R61     CG2R61      HGR61
   58    12    13    14	 9 ;      HGR61     CG2R61     CG2R61     CG2R61
   58    12    13    59	 9 ;      HGR61     CG2R61     CG2R61      HGR61
   12    13    14     9	 9 ;     CG2R61     CG2R61     CG2R61     CG2R61
   12    13    14    60	 9 ;     CG2R61     CG2R61     CG2R61      HGR61
   59    13    14     9	 9 ;      HGR61     CG2R61     CG2R61     CG2R61
   59    13    14    60	 9 ;      HGR61     CG2R61     CG2R61      HGR61
   16    15    17    64	 9 ;      CG331      CG301      CG331       HGA3
   16    15    17    65	 9 ;      CG331      CG301      CG331       HGA3
   16    15    17    66	 9 ;      CG331      CG301      CG331       HGA3
   11    15    17    64	 9 ;     CG2R61      CG301      CG331       HGA3
   11    15    17    65	 9 ;     CG2R61      CG301      CG331       HGA3
   11    15    17    66	 9 ;     CG2R61      CG301      CG331       HGA3
   18    15    17    64	 9 ;      CG331      CG301      CG331       HGA3
   18    15    17    65	 9 ;      CG331      CG301      CG331       HGA3
   18    15    17    66	 9 ;      CG331      CG301      CG331       HGA3
   17    15    16    61	 9 ;      CG331      CG301      CG331       HGA3
   17    15    16    62	 9 ;      CG331      CG301      CG331       HGA3
   17    15    16    63	 9 ;      CG331      CG301      CG331       HGA3
   11    15    16    61	 9 ;     CG2R61      CG301      CG331       HGA3
   11    15    16    62	 9 ;     CG2R61      CG301      CG331       HGA3
   11    15    16    63	 9 ;     CG2R61      CG301      CG331       HGA3
   18    15    16    61	 9 ;      CG331      CG301      CG331       HGA3
   18    15    16    62	 9 ;      CG331      CG301      CG331       HGA3
   18    15    16    63	 9 ;      CG331      CG301      CG331       HGA3
   17    15    18    67	 9 ;      CG331      CG301      CG331       HGA3
   17    15    18    68	 9 ;      CG331      CG301      CG331       HGA3
   17    15    18    69	 9 ;      CG331      CG301      CG331       HGA3
   16    15    18    67	 9 ;      CG331      CG301      CG331       HGA3
   16    15    18    68	 9 ;      CG331      CG301      CG331       HGA3
   16    15    18    69	 9 ;      CG331      CG301      CG331       HGA3
   11    15    18    67	 9 ;     CG2R61      CG301      CG331       HGA3
   11    15    18    68	 9 ;     CG2R61      CG301      CG331       HGA3
   11    15    18    69	 9 ;     CG2R61      CG301      CG331       HGA3
    1    19    22    23	 9 ;      CG301      NG3P2      CG324      CG311
    1    19    22    70	 9 ;      CG301      NG3P2      CG324       HGA2
    1    19    22    71	 9 ;      CG301      NG3P2      CG324       HGA2
   21    19    22    23	 9 ;       HGP2      NG3P2      CG324      CG311
   21    19    22    70	 9 ;       HGP2      NG3P2      CG324       HGA2
   21    19    22    71	 9 ;       HGP2      NG3P2      CG324       HGA2
   20    19    22    23	 9 ;       HGP2      NG3P2      CG324      CG311
   20    19    22    70	 9 ;       HGP2      NG3P2      CG324       HGA2
   20    19    22    71	 9 ;       HGP2      NG3P2      CG324       HGA2
   19    22    23    39	 9 ;      NG3P2      CG324      CG311      OG311
   19    22    23    24	 9 ;      NG3P2      CG324      CG311      CG311
   19    22    23    72	 9 ;      NG3P2      CG324      CG311       HGA1
   70    22    23    39	 9 ;       HGA2      CG324      CG311      OG311
   70    22    23    24	 9 ;       HGA2      CG324      CG311      CG311
   70    22    23    72	 9 ;       HGA2      CG324      CG311       HGA1
   71    22    23    39	 9 ;       HGA2      CG324      CG311      OG311
   71    22    23    24	 9 ;       HGA2      CG324      CG311      CG311
   71    22    23    72	 9 ;       HGA2      CG324      CG311       HGA1
   22    23    39    40	 9 ;      CG324      CG311      OG311       HGP1
   24    23    39    40	 9 ;      CG311      CG311      OG311       HGP1
   72    23    39    40	 9 ;       HGA1      CG311      OG311       HGP1
   22    23    24    34	 9 ;      CG324      CG311      CG311      NG2S1
   22    23    24    25	 9 ;      CG324      CG311      CG311      CG321
   22    23    24    73	 9 ;      CG324      CG311      CG311       HGA1
   39    23    24    34	 9 ;      OG311      CG311      CG311      NG2S1
   39    23    24    25	 9 ;      OG311      CG311      CG311      CG321
   39    23    24    73	 9 ;      OG311      CG311      CG311       HGA1
   72    23    24    34	 9 ;       HGA1      CG311      CG311      NG2S1
   72    23    24    25	 9 ;       HGA1      CG311      CG311      CG321
   72    23    24    73	 9 ;       HGA1      CG311      CG311       HGA1
   23    24    34    38	 9 ;      CG311      CG311      NG2S1       HGP1
   23    24    34    35	 9 ;      CG311      CG311      NG2S1      CG2O1
   25    24    34    38	 9 ;      CG321      CG311      NG2S1       HGP1
   25    24    34    35	 9 ;      CG321      CG311      NG2S1      CG2O1
   73    24    34    38	 9 ;       HGA1      CG311      NG2S1       HGP1
   73    24    34    35	 9 ;       HGA1      CG311      NG2S1      CG2O1
   34    24    25    26	 9 ;      NG2S1      CG311      CG321     CG2R61
   34    24    25    74	 9 ;      NG2S1      CG311      CG321       HGA2
   34    24    25    75	 9 ;      NG2S1      CG311      CG321       HGA2
   23    24    25    26	 9 ;      CG311      CG311      CG321     CG2R61
   23    24    25    74	 9 ;      CG311      CG311      CG321       HGA2
   23    24    25    75	 9 ;      CG311      CG311      CG321       HGA2
   73    24    25    26	 9 ;       HGA1      CG311      CG321     CG2R61
   73    24    25    74	 9 ;       HGA1      CG311      CG321       HGA2
   73    24    25    75	 9 ;       HGA1      CG311      CG321       HGA2
   24    25    26    27	 9 ;      CG311      CG321     CG2R61     CG2R61
   24    25    26    32	 9 ;      CG311      CG321     CG2R61     CG2R61
   74    25    26    27	 9 ;       HGA2      CG321     CG2R61     CG2R61
   74    25    26    32	 9 ;       HGA2      CG321     CG2R61     CG2R61
   75    25    26    27	 9 ;       HGA2      CG321     CG2R61     CG2R61
   75    25    26    32	 9 ;       HGA2      CG321     CG2R61     CG2R61
   25    26    27    28	 9 ;      CG321     CG2R61     CG2R61     CG2R66
   25    26    27    76	 9 ;      CG321     CG2R61     CG2R61      HGR62
   32    26    27    28	 9 ;     CG2R61     CG2R61     CG2R61     CG2R66
   32    26    27    76	 9 ;     CG2R61     CG2R61     CG2R61      HGR62
   25    26    32    31	 9 ;      CG321     CG2R61     CG2R61     CG2R66
   25    26    32    78	 9 ;      CG321     CG2R61     CG2R61      HGR62
   27    26    32    31	 9 ;     CG2R61     CG2R61     CG2R61     CG2R66
   27    26    32    78	 9 ;     CG2R61     CG2R61     CG2R61      HGR62
   26    27    28    29	 9 ;     CG2R61     CG2R61     CG2R66       FGR1
   26    27    28    30	 9 ;     CG2R61     CG2R61     CG2R66     CG2R61
   76    27    28    29	 9 ;      HGR62     CG2R61     CG2R66       FGR1
   76    27    28    30	 9 ;      HGR62     CG2R61     CG2R66     CG2R61
   27    28    30    31	 9 ;     CG2R61     CG2R66     CG2R61     CG2R66
   27    28    30    77	 9 ;     CG2R61     CG2R66     CG2R61      HGR62
   29    28    30    31	 9 ;       FGR1     CG2R66     CG2R61     CG2R66
   29    28    30    77	 9 ;       FGR1     CG2R66     CG2R61      HGR62
   28    30    31    32	 9 ;     CG2R66     CG2R61     CG2R66     CG2R61
   28    30    31    33	 9 ;     CG2R66     CG2R61     CG2R66       FGR1
   77    30    31    32	 9 ;      HGR62     CG2R61     CG2R66     CG2R61
   77    30    31    33	 9 ;      HGR62     CG2R61     CG2R66       FGR1
   30    31    32    26	 9 ;     CG2R61     CG2R66     CG2R61     CG2R61
   30    31    32    78	 9 ;     CG2R61     CG2R66     CG2R61      HGR62
   33    31    32    26	 9 ;       FGR1     CG2R66     CG2R61     CG2R61
   33    31    32    78	 9 ;       FGR1     CG2R66     CG2R61      HGR62
   38    34    35    37	 9 ;       HGP1      NG2S1      CG2O1      CG331
   38    34    35    36	 9 ;       HGP1      NG2S1      CG2O1      OG2D1
   24    34    35    37	 9 ;      CG311      NG2S1      CG2O1      CG331
   24    34    35    36	 9 ;      CG311      NG2S1      CG2O1      OG2D1
   34    35    37    79	 9 ;      NG2S1      CG2O1      CG331       HGA3
   34    35    37    80	 9 ;      NG2S1      CG2O1      CG331       HGA3
   34    35    37    81	 9 ;      NG2S1      CG2O1      CG331       HGA3
   36    35    37    79	 9 ;      OG2D1      CG2O1      CG331       HGA3
   36    35    37    80	 9 ;      OG2D1      CG2O1      CG331       HGA3
   36    35    37    81	 9 ;      OG2D1      CG2O1      CG331       HGA3
    7    41    42    43	 9 ;      CG2O6      OG302      CG321     CG2R61
    7    41    42    82	 9 ;      CG2O6      OG302      CG321       HGA2
    7    41    42    83	 9 ;      CG2O6      OG302      CG321       HGA2
   41    42    43    44	 9 ;      OG302      CG321     CG2R61     CG2R61
   41    42    43    48	 9 ;      OG302      CG321     CG2R61     CG2R61
   82    42    43    44	 9 ;       HGA2      CG321     CG2R61     CG2R61
   82    42    43    48	 9 ;       HGA2      CG321     CG2R61     CG2R61
   83    42    43    44	 9 ;       HGA2      CG321     CG2R61     CG2R61
   83    42    43    48	 9 ;       HGA2      CG321     CG2R61     CG2R61
   48    43    44    45	 9 ;     CG2R61     CG2R61     CG2R61     CG2R61
   48    43    44    84	 9 ;     CG2R61     CG2R61     CG2R61      HGR61
   42    43    44    45	 9 ;      CG321     CG2R61     CG2R61     CG2R61
   42    43    44    84	 9 ;      CG321     CG2R61     CG2R61      HGR61
   44    43    48    47	 9 ;     CG2R61     CG2R61     CG2R61     CG2R61
   44    43    48    88	 9 ;     CG2R61     CG2R61     CG2R61      HGR61
   42    43    48    47	 9 ;      CG321     CG2R61     CG2R61     CG2R61
   42    43    48    88	 9 ;      CG321     CG2R61     CG2R61      HGR61
   43    44    45    46	 9 ;     CG2R61     CG2R61     CG2R61     CG2R61
   43    44    45    85	 9 ;     CG2R61     CG2R61     CG2R61      HGR61
   84    44    45    46	 9 ;      HGR61     CG2R61     CG2R61     CG2R61
   84    44    45    85	 9 ;      HGR61     CG2R61     CG2R61      HGR61
   44    45    46    47	 9 ;     CG2R61     CG2R61     CG2R61     CG2R61
   44    45    46    86	 9 ;     CG2R61     CG2R61     CG2R61      HGR61
   85    45    46    47	 9 ;      HGR61     CG2R61     CG2R61     CG2R61
   85    45    46    86	 9 ;      HGR61     CG2R61     CG2R61      HGR61
   45    46    47    48	 9 ;     CG2R61     CG2R61     CG2R61     CG2R61
   45    46    47    87	 9 ;     CG2R61     CG2R61     CG2R61      HGR61
   86    46    47    48	 9 ;      HGR61     CG2R61     CG2R61     CG2R61
   86    46    47    87	 9 ;      HGR61     CG2R61     CG2R61      HGR61
   46    47    48    43	 9 ;     CG2R61     CG2R61     CG2R61     CG2R61
   46    47    48    88	 9 ;     CG2R61     CG2R61     CG2R61      HGR61
   87    47    48    43	 9 ;      HGR61     CG2R61     CG2R61     CG2R61
   87    47    48    88	 9 ;      HGR61     CG2R61     CG2R61      HGR61

[ dihedrals ]
;	ai	  aj	ak	  al funct			  c0			c1			  c2			c3
    7     5     8    41	 2
   35    37    34    36	 2

