; Created by cgenff_charmm2gmx.py

[ moleculetype ]
; Name			   nrexcl
LIG				 3

[ atoms ]
;	 nr		  type	resnr residue  atom   cgnr	   charge		mass  typeB    chargeB		massB
; residue	 1 LIG rtp LIG q	qsum
     1     CG2R61      1    LIG     C1      1      0.141     12.011   ;
     2     CG2R61      1    LIG     C2      2     -0.117     12.011   ;
     3     CG2R61      1    LIG     C3      3     -0.177     12.011   ;
     4     CG2R61      1    LIG     C4      4     -0.114     12.011   ;
     5     CG2R61      1    LIG     C5      5     -0.110     12.011   ;
     6     CG2R61      1    LIG     C6      6     -0.119     12.011   ;
     7      NG2S1      1    LIG     N1      7     -0.504     14.007   ;
     8      CG2O1      1    LIG     C7      8      0.362     12.011   ;
     9      OG2D1      1    LIG      O      9     -0.480     15.999   ;
    10       HGP1      1    LIG     H1     10      0.329      1.008   ;
    11      CG311      1    LIG     C8     11      0.436     12.011   ;
    12     CG2DC1      1    LIG     C9     12     -0.316     12.011   ;
    13     CG2DC1      1    LIG    C10     13     -0.198     12.011   ;
    14     CG2DC2      1    LIG    C11     14      0.029     12.011   ;
    15      CLGA1      1    LIG     CL     15     -0.066     35.453   ;
    16     CG2D2O      1    LIG    C12     16     -0.138     12.011   ;
    17      NG311      1    LIG     N2     17     -0.573     14.007   ;
    18     HGPAM1      1    LIG    HN3     18      0.375      1.008   ;
    19     CG3RC1      1    LIG    C13     19      0.208     12.011   ;
    20      NG3P2      1    LIG     N3     20     -0.598     14.007   ;
    21      CG314      1    LIG    C14     21      0.855     12.011   ;
    22       HGP2      1    LIG    HN4     22      0.334      1.008   ;
    23      SG311      1    LIG      S     23     -0.188     32.060   ;
    24      CG321      1    LIG    C15     24      0.135     12.011   ;
    25     CG3RC1      1    LIG    C16     25      0.040     12.011   ;
    26     CG3C31      1    LIG    C17     26     -0.081     12.011   ;
    27      NG3P3      1    LIG     N4     27     -0.361     14.007   ;
    28       HGP2      1    LIG     H2     28      0.301      1.008   ;
    29       HGP2      1    LIG     H3     29      0.301      1.008   ;
    30      HGR61      1    LIG     HC     30      0.119      1.008   ;
    31      HGR61      1    LIG    HC1     31      0.119      1.008   ;
    32      HGR61      1    LIG    HC2     32      0.116      1.008   ;
    33      HGR61      1    LIG    HC3     33      0.116      1.008   ;
    34       HGA4      1    LIG    HC4     34      0.154      1.008   ;
    35       HGA4      1    LIG    HC5     35      0.150      1.008   ;
    36       HGA4      1    LIG    HC6     36      0.162      1.008   ;
    37       HGP2      1    LIG    HN2     37      0.334      1.008   ;
    38       HGA1      1    LIG    HC7     38      0.133      1.008   ;
    39       HGA2      1    LIG    HC8     39      0.090      1.008   ;
    40       HGA2      1    LIG    HC9     40      0.090      1.008   ;
    41       HGA1      1    LIG   HC10     41      0.090      1.008   ;
    42       HGA2      1    LIG   HC11     42      0.090      1.008   ;
    43       HGA2      1    LIG   HC12     43      0.090      1.008   ;
    44       HGP2      1    LIG    HN1     44      0.301      1.008   ;
    45       HGA1      1    LIG    H21     45      0.090      1.008   ;
    46        LPH      1    LIG    LP1     46      0.050      0.000   ;

[ bonds ]
;	ai	  aj funct			  c0			c1			  c2			c3
    1     6	 1 ;      CG2R61     CG2R61
    1     7	 1 ;      CG2R61      NG2S1
    1     2	 1 ;      CG2R61     CG2R61
    2     3	 1 ;      CG2R61     CG2R61
    2    30	 1 ;      CG2R61      HGR61
    3     4	 1 ;      CG2R61     CG2R61
    3    19	 1 ;      CG2R61     CG3RC1
    4     5	 1 ;      CG2R61     CG2R61
    4    31	 1 ;      CG2R61      HGR61
    5     6	 1 ;      CG2R61     CG2R61
    5    32	 1 ;      CG2R61      HGR61
    6    33	 1 ;      CG2R61      HGR61
    7    10	 1 ;       NG2S1       HGP1
    7     8	 1 ;       NG2S1      CG2O1
    8     9	 1 ;       CG2O1      OG2D1
    8    11	 1 ;       CG2O1      CG311
   11    17	 1 ;       CG311      NG311
   11    12	 1 ;       CG311     CG2DC1
   11    45	 1 ;       CG311       HGA1
   12    13	 1 ;      CG2DC1     CG2DC1
   12    34	 1 ;      CG2DC1       HGA4
   13    14	 1 ;      CG2DC1     CG2DC2
   13    35	 1 ;      CG2DC1       HGA4
   14    16	 1 ;      CG2DC2     CG2D2O
   14    15	 1 ;      CG2DC2      CLGA1
   16    17	 1 ;      CG2D2O      NG311
   16    36	 1 ;      CG2D2O       HGA4
   17    18	 1 ;       NG311     HGPAM1
   19    20	 1 ;      CG3RC1      NG3P2
   19    25	 1 ;      CG3RC1     CG3RC1
   19    26	 1 ;      CG3RC1     CG3C31
   20    21	 1 ;       NG3P2      CG314
   20    22	 1 ;       NG3P2       HGP2
   20    37	 1 ;       NG3P2       HGP2
   21    27	 1 ;       CG314      NG3P3
   21    23	 1 ;       CG314      SG311
   21    38	 1 ;       CG314       HGA1
   23    24	 1 ;       SG311      CG321
   24    25	 1 ;       CG321     CG3RC1
   24    39	 1 ;       CG321       HGA2
   24    40	 1 ;       CG321       HGA2
   25    26	 1 ;      CG3RC1     CG3C31
   25    41	 1 ;      CG3RC1       HGA1
   26    42	 1 ;      CG3C31       HGA2
   26    43	 1 ;      CG3C31       HGA2
   27    28	 1 ;       NG3P3       HGP2
   27    29	 1 ;       NG3P3       HGP2
   27    44	 1 ;       NG3P3       HGP2

[ pairs ]
;	ai	  aj funct			  c0			c1			  c2			c3
    1     4	 1
    1    19	 1
    1    32	 1
    1     9	 1
    1    11	 1
    2     5	 1
    2    33	 1
    2    10	 1
    2     8	 1
    2    31	 1
    2    20	 1
    2    25	 1
    2    26	 1
    3     6	 1
    3     7	 1
    3    32	 1
    3    21	 1
    3    22	 1
    3    37	 1
    3    24	 1
    3    41	 1
    3    42	 1
    3    43	 1
    4    30	 1
    4    20	 1
    4    25	 1
    4    26	 1
    4    33	 1
    5     7	 1
    5    19	 1
    6    10	 1
    6     8	 1
    6    30	 1
    6    31	 1
    7    33	 1
    7    30	 1
    7    17	 1
    7    12	 1
    7    45	 1
    8    18	 1
    8    16	 1
    8    13	 1
    8    34	 1
    9    10	 1
    9    17	 1
    9    12	 1
    9    45	 1
   10    11	 1
   11    14	 1
   11    35	 1
   11    36	 1
   12    18	 1
   12    16	 1
   12    15	 1
   46    12	 1
   13    17	 1
   13    45	 1
   13    36	 1
   14    34	 1
   14    18	 1
   15    35	 1
   46    35	 1
   15    17	 1
   46    17	 1
   15    36	 1
   46    36	 1
   16    45	 1
   16    35	 1
   17    34	 1
   18    45	 1
   18    36	 1
   19    30	 1
   19    31	 1
   19    27	 1
   19    23	 1
   19    38	 1
   19    39	 1
   19    40	 1
   20    24	 1
   20    41	 1
   20    42	 1
   20    43	 1
   20    28	 1
   20    29	 1
   20    44	 1
   21    25	 1
   21    26	 1
   21    39	 1
   21    40	 1
   22    25	 1
   22    26	 1
   22    27	 1
   22    23	 1
   22    38	 1
   23    37	 1
   23    28	 1
   23    29	 1
   23    44	 1
   23    26	 1
   23    41	 1
   24    27	 1
   24    38	 1
   24    42	 1
   24    43	 1
   25    37	 1
   26    37	 1
   26    39	 1
   26    40	 1
   27    37	 1
   28    38	 1
   29    38	 1
   31    32	 1
   32    33	 1
   34    45	 1
   34    35	 1
   37    38	 1
   38    44	 1
   39    41	 1
   40    41	 1
   41    42	 1
   41    43	 1

[ angles ]
;	ai	  aj	ak funct			c0			  c1			c2			  c3
    6     1     7	5 ;     CG2R61     CG2R61      NG2S1
    6     1     2	5 ;     CG2R61     CG2R61     CG2R61
    7     1     2	5 ;      NG2S1     CG2R61     CG2R61
    1     2     3	5 ;     CG2R61     CG2R61     CG2R61
    1     2    30	5 ;     CG2R61     CG2R61      HGR61
    3     2    30	5 ;     CG2R61     CG2R61      HGR61
    4     3     2	5 ;     CG2R61     CG2R61     CG2R61
    4     3    19	5 ;     CG2R61     CG2R61     CG3RC1
    2     3    19	5 ;     CG2R61     CG2R61     CG3RC1
    5     4     3	5 ;     CG2R61     CG2R61     CG2R61
    5     4    31	5 ;     CG2R61     CG2R61      HGR61
    3     4    31	5 ;     CG2R61     CG2R61      HGR61
    6     5     4	5 ;     CG2R61     CG2R61     CG2R61
    6     5    32	5 ;     CG2R61     CG2R61      HGR61
    4     5    32	5 ;     CG2R61     CG2R61      HGR61
    5     6     1	5 ;     CG2R61     CG2R61     CG2R61
    5     6    33	5 ;     CG2R61     CG2R61      HGR61
    1     6    33	5 ;     CG2R61     CG2R61      HGR61
    1     7    10	5 ;     CG2R61      NG2S1       HGP1
    1     7     8	5 ;     CG2R61      NG2S1      CG2O1
   10     7     8	5 ;       HGP1      NG2S1      CG2O1
    7     8     9	5 ;      NG2S1      CG2O1      OG2D1
    7     8    11	5 ;      NG2S1      CG2O1      CG311
    9     8    11	5 ;      OG2D1      CG2O1      CG311
   17    11     8	5 ;      NG311      CG311      CG2O1
   17    11    12	5 ;      NG311      CG311     CG2DC1
   17    11    45	5 ;      NG311      CG311       HGA1
    8    11    12	5 ;      CG2O1      CG311     CG2DC1
    8    11    45	5 ;      CG2O1      CG311       HGA1
   12    11    45	5 ;     CG2DC1      CG311       HGA1
   11    12    13	5 ;      CG311     CG2DC1     CG2DC1
   11    12    34	5 ;      CG311     CG2DC1       HGA4
   13    12    34	5 ;     CG2DC1     CG2DC1       HGA4
   14    13    12	5 ;     CG2DC2     CG2DC1     CG2DC1
   14    13    35	5 ;     CG2DC2     CG2DC1       HGA4
   12    13    35	5 ;     CG2DC1     CG2DC1       HGA4
   16    14    15	5 ;     CG2D2O     CG2DC2      CLGA1
   16    14    13	5 ;     CG2D2O     CG2DC2     CG2DC1
   15    14    13	5 ;      CLGA1     CG2DC2     CG2DC1
   17    16    14	5 ;      NG311     CG2D2O     CG2DC2
   17    16    36	5 ;      NG311     CG2D2O       HGA4
   14    16    36	5 ;     CG2DC2     CG2D2O       HGA4
   18    17    16	5 ;     HGPAM1      NG311     CG2D2O
   18    17    11	5 ;     HGPAM1      NG311      CG311
   16    17    11	5 ;     CG2D2O      NG311      CG311
    3    19    20	5 ;     CG2R61     CG3RC1      NG3P2
    3    19    25	5 ;     CG2R61     CG3RC1     CG3RC1
    3    19    26	5 ;     CG2R61     CG3RC1     CG3C31
   20    19    25	5 ;      NG3P2     CG3RC1     CG3RC1
   20    19    26	5 ;      NG3P2     CG3RC1     CG3C31
   25    19    26	5 ;     CG3RC1     CG3RC1     CG3C31
   21    20    22	5 ;      CG314      NG3P2       HGP2
   21    20    19	5 ;      CG314      NG3P2     CG3RC1
   21    20    37	5 ;      CG314      NG3P2       HGP2
   22    20    19	5 ;       HGP2      NG3P2     CG3RC1
   22    20    37	5 ;       HGP2      NG3P2       HGP2
   19    20    37	5 ;     CG3RC1      NG3P2       HGP2
   27    21    23	5 ;      NG3P3      CG314      SG311
   27    21    20	5 ;      NG3P3      CG314      NG3P2
   27    21    38	5 ;      NG3P3      CG314       HGA1
   23    21    20	5 ;      SG311      CG314      NG3P2
   23    21    38	5 ;      SG311      CG314       HGA1
   20    21    38	5 ;      NG3P2      CG314       HGA1
   21    23    24	5 ;      CG314      SG311      CG321
   23    24    25	5 ;      SG311      CG321     CG3RC1
   23    24    39	5 ;      SG311      CG321       HGA2
   23    24    40	5 ;      SG311      CG321       HGA2
   25    24    39	5 ;     CG3RC1      CG321       HGA2
   25    24    40	5 ;     CG3RC1      CG321       HGA2
   39    24    40	5 ;       HGA2      CG321       HGA2
   24    25    19	5 ;      CG321     CG3RC1     CG3RC1
   24    25    26	5 ;      CG321     CG3RC1     CG3C31
   24    25    41	5 ;      CG321     CG3RC1       HGA1
   19    25    26	5 ;     CG3RC1     CG3RC1     CG3C31
   19    25    41	5 ;     CG3RC1     CG3RC1       HGA1
   26    25    41	5 ;     CG3C31     CG3RC1       HGA1
   19    26    25	5 ;     CG3RC1     CG3C31     CG3RC1
   19    26    42	5 ;     CG3RC1     CG3C31       HGA2
   19    26    43	5 ;     CG3RC1     CG3C31       HGA2
   25    26    42	5 ;     CG3RC1     CG3C31       HGA2
   25    26    43	5 ;     CG3RC1     CG3C31       HGA2
   42    26    43	5 ;       HGA2     CG3C31       HGA2
   28    27    29	5 ;       HGP2      NG3P3       HGP2
   28    27    21	5 ;       HGP2      NG3P3      CG314
   28    27    44	5 ;       HGP2      NG3P3       HGP2
   29    27    21	5 ;       HGP2      NG3P3      CG314
   29    27    44	5 ;       HGP2      NG3P3       HGP2
   21    27    44	5 ;      CG314      NG3P3       HGP2

[ dihedrals ]
;	ai	  aj	ak	  al funct			  c0			c1			  c2			c3			  c4			c5
    7     1     6     5	 9 ;      NG2S1     CG2R61     CG2R61     CG2R61
    7     1     6    33	 9 ;      NG2S1     CG2R61     CG2R61      HGR61
    2     1     6     5	 9 ;     CG2R61     CG2R61     CG2R61     CG2R61
    2     1     6    33	 9 ;     CG2R61     CG2R61     CG2R61      HGR61
    6     1     7    10	 9 ;     CG2R61     CG2R61      NG2S1       HGP1
    6     1     7     8	 9 ;     CG2R61     CG2R61      NG2S1      CG2O1
    2     1     7    10	 9 ;     CG2R61     CG2R61      NG2S1       HGP1
    2     1     7     8	 9 ;     CG2R61     CG2R61      NG2S1      CG2O1
    6     1     2     3	 9 ;     CG2R61     CG2R61     CG2R61     CG2R61
    6     1     2    30	 9 ;     CG2R61     CG2R61     CG2R61      HGR61
    7     1     2     3	 9 ;      NG2S1     CG2R61     CG2R61     CG2R61
    7     1     2    30	 9 ;      NG2S1     CG2R61     CG2R61      HGR61
    1     2     3     4	 9 ;     CG2R61     CG2R61     CG2R61     CG2R61
    1     2     3    19	 9 ;     CG2R61     CG2R61     CG2R61     CG3RC1
   30     2     3     4	 9 ;      HGR61     CG2R61     CG2R61     CG2R61
   30     2     3    19	 9 ;      HGR61     CG2R61     CG2R61     CG3RC1
    2     3     4     5	 9 ;     CG2R61     CG2R61     CG2R61     CG2R61
    2     3     4    31	 9 ;     CG2R61     CG2R61     CG2R61      HGR61
   19     3     4     5	 9 ;     CG3RC1     CG2R61     CG2R61     CG2R61
   19     3     4    31	 9 ;     CG3RC1     CG2R61     CG2R61      HGR61
    4     3    19    20	 9 ;     CG2R61     CG2R61     CG3RC1      NG3P2
    4     3    19    25	 9 ;     CG2R61     CG2R61     CG3RC1     CG3RC1
    4     3    19    26	 9 ;     CG2R61     CG2R61     CG3RC1     CG3C31
    2     3    19    20	 9 ;     CG2R61     CG2R61     CG3RC1      NG3P2
    2     3    19    25	 9 ;     CG2R61     CG2R61     CG3RC1     CG3RC1
    2     3    19    26	 9 ;     CG2R61     CG2R61     CG3RC1     CG3C31
    3     4     5     6	 9 ;     CG2R61     CG2R61     CG2R61     CG2R61
    3     4     5    32	 9 ;     CG2R61     CG2R61     CG2R61      HGR61
   31     4     5     6	 9 ;      HGR61     CG2R61     CG2R61     CG2R61
   31     4     5    32	 9 ;      HGR61     CG2R61     CG2R61      HGR61
    4     5     6     1	 9 ;     CG2R61     CG2R61     CG2R61     CG2R61
    4     5     6    33	 9 ;     CG2R61     CG2R61     CG2R61      HGR61
   32     5     6     1	 9 ;      HGR61     CG2R61     CG2R61     CG2R61
   32     5     6    33	 9 ;      HGR61     CG2R61     CG2R61      HGR61
    1     7     8     9	 9 ;     CG2R61      NG2S1      CG2O1      OG2D1
    1     7     8    11	 9 ;     CG2R61      NG2S1      CG2O1      CG311
   10     7     8     9	 9 ;       HGP1      NG2S1      CG2O1      OG2D1
   10     7     8    11	 9 ;       HGP1      NG2S1      CG2O1      CG311
    7     8    11    17	 9 ;      NG2S1      CG2O1      CG311      NG311
    7     8    11    12	 9 ;      NG2S1      CG2O1      CG311     CG2DC1
    7     8    11    45	 9 ;      NG2S1      CG2O1      CG311       HGA1
    9     8    11    17	 9 ;      OG2D1      CG2O1      CG311      NG311
    9     8    11    12	 9 ;      OG2D1      CG2O1      CG311     CG2DC1
    9     8    11    45	 9 ;      OG2D1      CG2O1      CG311       HGA1
    8    11    17    18	 9 ;      CG2O1      CG311      NG311     HGPAM1
    8    11    17    16	 9 ;      CG2O1      CG311      NG311     CG2D2O
   12    11    17    18	 9 ;     CG2DC1      CG311      NG311     HGPAM1
   12    11    17    16	 9 ;     CG2DC1      CG311      NG311     CG2D2O
   45    11    17    18	 9 ;       HGA1      CG311      NG311     HGPAM1
   45    11    17    16	 9 ;       HGA1      CG311      NG311     CG2D2O
   17    11    12    13	 9 ;      NG311      CG311     CG2DC1     CG2DC1
   17    11    12    34	 9 ;      NG311      CG311     CG2DC1       HGA4
    8    11    12    13	 9 ;      CG2O1      CG311     CG2DC1     CG2DC1
    8    11    12    34	 9 ;      CG2O1      CG311     CG2DC1       HGA4
   45    11    12    13	 9 ;       HGA1      CG311     CG2DC1     CG2DC1
   45    11    12    34	 9 ;       HGA1      CG311     CG2DC1       HGA4
   11    12    13    14	 9 ;      CG311     CG2DC1     CG2DC1     CG2DC2
   11    12    13    35	 9 ;      CG311     CG2DC1     CG2DC1       HGA4
   34    12    13    14	 9 ;       HGA4     CG2DC1     CG2DC1     CG2DC2
   34    12    13    35	 9 ;       HGA4     CG2DC1     CG2DC1       HGA4
   12    13    14    16	 9 ;     CG2DC1     CG2DC1     CG2DC2     CG2D2O
   12    13    14    15	 9 ;     CG2DC1     CG2DC1     CG2DC2      CLGA1
   35    13    14    16	 9 ;       HGA4     CG2DC1     CG2DC2     CG2D2O
   35    13    14    15	 9 ;       HGA4     CG2DC1     CG2DC2      CLGA1
   15    14    16    17	 9 ;      CLGA1     CG2DC2     CG2D2O      NG311
   15    14    16    36	 9 ;      CLGA1     CG2DC2     CG2D2O       HGA4
   13    14    16    17	 9 ;     CG2DC1     CG2DC2     CG2D2O      NG311
   13    14    16    36	 9 ;     CG2DC1     CG2DC2     CG2D2O       HGA4
   14    16    17    18	 9 ;     CG2DC2     CG2D2O      NG311     HGPAM1
   14    16    17    11	 9 ;     CG2DC2     CG2D2O      NG311      CG311
   36    16    17    18	 9 ;       HGA4     CG2D2O      NG311     HGPAM1
   36    16    17    11	 9 ;       HGA4     CG2D2O      NG311      CG311
    3    19    20    21	 9 ;     CG2R61     CG3RC1      NG3P2      CG314
    3    19    20    22	 9 ;     CG2R61     CG3RC1      NG3P2       HGP2
    3    19    20    37	 9 ;     CG2R61     CG3RC1      NG3P2       HGP2
   25    19    20    21	 9 ;     CG3RC1     CG3RC1      NG3P2      CG314
   25    19    20    22	 9 ;     CG3RC1     CG3RC1      NG3P2       HGP2
   25    19    20    37	 9 ;     CG3RC1     CG3RC1      NG3P2       HGP2
   26    19    20    21	 9 ;     CG3C31     CG3RC1      NG3P2      CG314
   26    19    20    22	 9 ;     CG3C31     CG3RC1      NG3P2       HGP2
   26    19    20    37	 9 ;     CG3C31     CG3RC1      NG3P2       HGP2
    3    19    25    24	 9 ;     CG2R61     CG3RC1     CG3RC1      CG321
    3    19    25    26	 9 ;     CG2R61     CG3RC1     CG3RC1     CG3C31
    3    19    25    41	 9 ;     CG2R61     CG3RC1     CG3RC1       HGA1
   20    19    25    24	 9 ;      NG3P2     CG3RC1     CG3RC1      CG321
   20    19    25    26	 9 ;      NG3P2     CG3RC1     CG3RC1     CG3C31
   20    19    25    41	 9 ;      NG3P2     CG3RC1     CG3RC1       HGA1
   26    19    25    24	 9 ;     CG3C31     CG3RC1     CG3RC1      CG321
   26    19    25    41	 9 ;     CG3C31     CG3RC1     CG3RC1       HGA1
    3    19    26    25	 9 ;     CG2R61     CG3RC1     CG3C31     CG3RC1
    3    19    26    42	 9 ;     CG2R61     CG3RC1     CG3C31       HGA2
    3    19    26    43	 9 ;     CG2R61     CG3RC1     CG3C31       HGA2
   20    19    26    25	 9 ;      NG3P2     CG3RC1     CG3C31     CG3RC1
   20    19    26    42	 9 ;      NG3P2     CG3RC1     CG3C31       HGA2
   20    19    26    43	 9 ;      NG3P2     CG3RC1     CG3C31       HGA2
   25    19    26    42	 9 ;     CG3RC1     CG3RC1     CG3C31       HGA2
   25    19    26    43	 9 ;     CG3RC1     CG3RC1     CG3C31       HGA2
   22    20    21    27	 9 ;       HGP2      NG3P2      CG314      NG3P3
   22    20    21    23	 9 ;       HGP2      NG3P2      CG314      SG311
   22    20    21    38	 9 ;       HGP2      NG3P2      CG314       HGA1
   19    20    21    27	 9 ;     CG3RC1      NG3P2      CG314      NG3P3
   19    20    21    23	 9 ;     CG3RC1      NG3P2      CG314      SG311
   19    20    21    38	 9 ;     CG3RC1      NG3P2      CG314       HGA1
   37    20    21    27	 9 ;       HGP2      NG3P2      CG314      NG3P3
   37    20    21    23	 9 ;       HGP2      NG3P2      CG314      SG311
   37    20    21    38	 9 ;       HGP2      NG3P2      CG314       HGA1
   23    21    27    28	 9 ;      SG311      CG314      NG3P3       HGP2
   23    21    27    29	 9 ;      SG311      CG314      NG3P3       HGP2
   23    21    27    44	 9 ;      SG311      CG314      NG3P3       HGP2
   20    21    27    28	 9 ;      NG3P2      CG314      NG3P3       HGP2
   20    21    27    29	 9 ;      NG3P2      CG314      NG3P3       HGP2
   20    21    27    44	 9 ;      NG3P2      CG314      NG3P3       HGP2
   38    21    27    28	 9 ;       HGA1      CG314      NG3P3       HGP2
   38    21    27    29	 9 ;       HGA1      CG314      NG3P3       HGP2
   38    21    27    44	 9 ;       HGA1      CG314      NG3P3       HGP2
   27    21    23    24	 9 ;      NG3P3      CG314      SG311      CG321
   20    21    23    24	 9 ;      NG3P2      CG314      SG311      CG321
   38    21    23    24	 9 ;       HGA1      CG314      SG311      CG321
   21    23    24    25	 9 ;      CG314      SG311      CG321     CG3RC1
   21    23    24    39	 9 ;      CG314      SG311      CG321       HGA2
   21    23    24    40	 9 ;      CG314      SG311      CG321       HGA2
   23    24    25    19	 9 ;      SG311      CG321     CG3RC1     CG3RC1
   23    24    25    26	 9 ;      SG311      CG321     CG3RC1     CG3C31
   23    24    25    41	 9 ;      SG311      CG321     CG3RC1       HGA1
   39    24    25    19	 9 ;       HGA2      CG321     CG3RC1     CG3RC1
   39    24    25    26	 9 ;       HGA2      CG321     CG3RC1     CG3C31
   39    24    25    41	 9 ;       HGA2      CG321     CG3RC1       HGA1
   40    24    25    19	 9 ;       HGA2      CG321     CG3RC1     CG3RC1
   40    24    25    26	 9 ;       HGA2      CG321     CG3RC1     CG3C31
   40    24    25    41	 9 ;       HGA2      CG321     CG3RC1       HGA1
   24    25    26    19	 9 ;      CG321     CG3RC1     CG3C31     CG3RC1
   24    25    26    42	 9 ;      CG321     CG3RC1     CG3C31       HGA2
   24    25    26    43	 9 ;      CG321     CG3RC1     CG3C31       HGA2
   19    25    26    42	 9 ;     CG3RC1     CG3RC1     CG3C31       HGA2
   19    25    26    43	 9 ;     CG3RC1     CG3RC1     CG3C31       HGA2
   41    25    26    19	 9 ;       HGA1     CG3RC1     CG3C31     CG3RC1
   41    25    26    42	 9 ;       HGA1     CG3RC1     CG3C31       HGA2
   41    25    26    43	 9 ;       HGA1     CG3RC1     CG3C31       HGA2

[ dihedrals ]
;	ai	  aj	ak	  al funct			  c0			c1			  c2			c3
    8    11     7     9	 2
   16    14    17    36	 2

[ virtual_sites2 ]
; Site   from				funct a
   46    15    14     2   -0.164

[ exclusions ]
;	ai	  aj
   15    46
   46    14
   46    16
   46    13
   46    12
   46    35
   46    17
   46    36

