GRowing Old MAkes el Chrono Sweat
   46
    1LIG     C1    1  -1.357   0.576  -1.614
    1LIG     C2    2  -1.475   0.647  -1.589
    1LIG     C3    3  -1.492   0.783  -1.617
    1LIG     C4    4  -1.380   0.847  -1.674
    1LIG     C5    5  -1.264   0.777  -1.709
    1LIG     C6    6  -1.254   0.641  -1.682
    1LIG     N1    7  -1.336   0.445  -1.566
    1LIG     C7    8  -1.261   0.414  -1.453
    1LIG      O    9  -1.219   0.493  -1.369
    1LIG     H1   10  -1.356   0.367  -1.628
    1LIG     C8   11  -1.222   0.271  -1.438
    1LIG     C9   12  -1.257   0.206  -1.320
    1LIG    C10   13  -1.209   0.077  -1.298
    1LIG    C11   14  -1.128   0.019  -1.395
    1LIG     CL   15  -1.062  -0.138  -1.368
    1LIG    C12   16  -1.101   0.090  -1.511
    1LIG     N2   17  -1.146   0.216  -1.536
    1LIG    HN3   18  -1.123   0.266  -1.623
    1LIG    C13   19  -1.623   0.861  -1.587
    1LIG     N3   20  -1.602   1.001  -1.573
    1LIG    C14   21  -1.600   1.066  -1.686
    1LIG    HN4   22  -1.591   1.047  -1.483
    1LIG      S   23  -1.635   0.998  -1.847
    1LIG    C15   24  -1.730   0.845  -1.805
    1LIG    C16   25  -1.758   0.850  -1.660
    1LIG    C17   26  -1.732   0.777  -1.532
    1LIG     N4   27  -1.563   1.196  -1.689
    1LIG     H2   28  -1.462   1.205  -1.688
    1LIG     H3   29  -1.606   1.246  -1.766
    1LIG     HC   30  -1.558   0.593  -1.545
    1LIG    HC1   31  -1.384   0.954  -1.691
    1LIG    HC2   32  -1.183   0.828  -1.758
    1LIG    HC3   33  -1.166   0.585  -1.712
    1LIG    HC4   34  -1.320   0.254  -1.247
    1LIG    HC5   35  -1.234   0.024  -1.207
    1LIG    HC6   36  -1.041   0.041  -1.586
    1LIG    HN2   37  -1.702   1.015  -1.568
    1LIG    HC7   38  -1.704   1.094  -1.674
    1LIG    HC8   39  -1.824   0.842  -1.861
    1LIG    HC9   40  -1.670   0.757  -1.829
    1LIG   HC10   41  -1.816   0.940  -1.639
    1LIG   HC11   42  -1.784   0.808  -1.441
    1LIG   HC12   43  -1.718   0.669  -1.542
    1LIG    HN1   44  -1.598   1.238  -1.604
    1LIG    H21   45  -1.314   0.238  -1.487
    1LIG    LP1   46  -0.999  -0.287  -1.343
   0.00000   0.00000   0.00000
