; Created by cgenff_charmm2gmx.py

[ moleculetype ]
; Name			   nrexcl
LIG				 3

[ atoms ]
;	 nr		  type	resnr residue  atom   cgnr	   charge		mass  typeB    chargeB		massB
; residue	 1 LIG rtp LIG q	qsum
     1     CG2R67      1    LIG     C1      1      0.014     12.011   ;
     2     CG2R61      1    LIG     C2      2     -0.127     12.011   ;
     3     CG2R61      1    LIG     C3      3     -0.329     12.011   ;
     4     CG2R61      1    LIG     C4      4      0.153     12.011   ;
     5     OG3R60      1    LIG     O1      5     -0.292     15.999   ;
     6     CG2R61      1    LIG     C5      6      0.147     12.011   ;
     7     CG2R61      1    LIG     C6      7     -0.324     12.011   ;
     8     CG2R61      1    LIG     C7      8     -0.131     12.011   ;
     9     CG2R61      1    LIG     C8      9      0.222     12.011   ;
    10     CG2R61      1    LIG     C9     10     -0.117     12.011   ;
    11     CG2R61      1    LIG    C10     11     -0.106     12.011   ;
    12     CG3C50      1    LIG    C11     12      1.306     12.011   ;
    13      NG3P2      1    LIG     N1     13     -1.541     14.007   ;
    14       HGP2      1    LIG     HN     14      0.500      1.008   ;
    15     CG3C53      1    LIG    C12     15      1.711     12.011   ;
    16     OG3C51      1    LIG     O2     16     -0.243     15.999   ;
    17     CG3C52      1    LIG    C13     17     -0.015     12.011   ;
    18     CG2R61      1    LIG    C14     18     -0.112     12.011   ;
    19     CG2R61      1    LIG    C15     19     -0.115     12.011   ;
    20     CG2R67      1    LIG    C16     20      0.006     12.011   ;
    21     CG2R61      1    LIG    C17     21     -0.120     12.011   ;
    22     CG2R61      1    LIG    C18     22      0.215     12.011   ;
    23     CG2R61      1    LIG    C19     23     -0.113     12.011   ;
    24     CG2R61      1    LIG    C20     24     -0.116     12.011   ;
    25     CG2R61      1    LIG    C21     25     -0.119     12.011   ;
    26      OG301      1    LIG     O3     26     -0.303     15.999   ;
    27      CG302      1    LIG    C22     27      0.464     12.011   ;
    28       FGA3      1    LIG     F1     28     -0.126     18.998   ;
    29       FGA3      1    LIG     F2     29     -0.126     18.998   ;
    30       FGA3      1    LIG     F3     30     -0.126     18.998   ;
    31      NG3P3      1    LIG     N2     31     -0.781     14.007   ;
    32       HGP2      1    LIG     H1     32      0.307      1.008   ;
    33       HGP2      1    LIG     H2     33      0.307      1.008   ;
    34      OG301      1    LIG     O4     34     -0.383     15.999   ;
    35      CG331      1    LIG    C23     35     -0.094     12.011   ;
    36      HGR61      1    LIG     HC     36      0.116      1.008   ;
    37      HGR61      1    LIG    HC1     37      0.116      1.008   ;
    38      HGR61      1    LIG    HC2     38      0.116      1.008   ;
    39      HGR61      1    LIG    HC3     39      0.116      1.008   ;
    40       HGP2      1    LIG    HN2     40      0.500      1.008   ;
    41       HGA1      1    LIG    HC4     41      0.090      1.008   ;
    42       HGA2      1    LIG    HC5     42      0.090      1.008   ;
    43       HGA2      1    LIG    HC6     43      0.090      1.008   ;
    44      HGR61      1    LIG    HC7     44      0.116      1.008   ;
    45      HGR61      1    LIG    HC8     45      0.116      1.008   ;
    46      HGR61      1    LIG    HC9     46      0.116      1.008   ;
    47      HGR61      1    LIG   HC10     47      0.116      1.008   ;
    48      HGR61      1    LIG   HC11     48      0.116      1.008   ;
    49      HGR61      1    LIG   HC12     49      0.116      1.008   ;
    50       HGP2      1    LIG    HN1     50      0.307      1.008   ;
    51       HGA3      1    LIG   HC13     51      0.090      1.008   ;
    52       HGA3      1    LIG   HC14     52      0.090      1.008   ;
    53       HGA3      1    LIG   HC15     53      0.090      1.008   ;

[ bonds ]
;	ai	  aj funct			  c0			c1			  c2			c3
    1     2	 1 ;      CG2R67     CG2R61
    1    20	 1 ;      CG2R67     CG2R67
    1    19	 1 ;      CG2R67     CG2R61
    2     3	 1 ;      CG2R61     CG2R61
    2    36	 1 ;      CG2R61      HGR61
    3    12	 1 ;      CG2R61     CG3C50
    3     4	 1 ;      CG2R61     CG2R61
    4    18	 1 ;      CG2R61     CG2R61
    4     5	 1 ;      CG2R61     OG3R60
    5     6	 1 ;      OG3R60     CG2R61
    6     7	 1 ;      CG2R61     CG2R61
    6    11	 1 ;      CG2R61     CG2R61
    7    12	 1 ;      CG2R61     CG3C50
    7     8	 1 ;      CG2R61     CG2R61
    8     9	 1 ;      CG2R61     CG2R61
    8    37	 1 ;      CG2R61      HGR61
    9    34	 1 ;      CG2R61      OG301
    9    10	 1 ;      CG2R61     CG2R61
   10    11	 1 ;      CG2R61     CG2R61
   10    38	 1 ;      CG2R61      HGR61
   11    39	 1 ;      CG2R61      HGR61
   12    17	 1 ;      CG3C50     CG3C52
   12    13	 1 ;      CG3C50      NG3P2
   13    15	 1 ;       NG3P2     CG3C53
   13    14	 1 ;       NG3P2       HGP2
   13    40	 1 ;       NG3P2       HGP2
   15    16	 1 ;      CG3C53     OG3C51
   15    31	 1 ;      CG3C53      NG3P3
   15    41	 1 ;      CG3C53       HGA1
   16    17	 1 ;      OG3C51     CG3C52
   17    42	 1 ;      CG3C52       HGA2
   17    43	 1 ;      CG3C52       HGA2
   18    19	 1 ;      CG2R61     CG2R61
   18    44	 1 ;      CG2R61      HGR61
   19    45	 1 ;      CG2R61      HGR61
   20    25	 1 ;      CG2R67     CG2R61
   20    21	 1 ;      CG2R67     CG2R61
   21    22	 1 ;      CG2R61     CG2R61
   21    46	 1 ;      CG2R61      HGR61
   22    23	 1 ;      CG2R61     CG2R61
   22    26	 1 ;      CG2R61      OG301
   23    24	 1 ;      CG2R61     CG2R61
   23    47	 1 ;      CG2R61      HGR61
   24    25	 1 ;      CG2R61     CG2R61
   24    48	 1 ;      CG2R61      HGR61
   25    49	 1 ;      CG2R61      HGR61
   26    27	 1 ;       OG301      CG302
   27    28	 1 ;       CG302       FGA3
   27    30	 1 ;       CG302       FGA3
   27    29	 1 ;       CG302       FGA3
   31    32	 1 ;       NG3P3       HGP2
   31    33	 1 ;       NG3P3       HGP2
   31    50	 1 ;       NG3P3       HGP2
   34    35	 1 ;       OG301      CG331
   35    51	 1 ;       CG331       HGA3
   35    52	 1 ;       CG331       HGA3
   35    53	 1 ;       CG331       HGA3

[ pairs ]
;	ai	  aj funct			  c0			c1			  c2			c3
    1    12	 1
    1     4	 1
    1    44	 1
    1    24	 1
    1    49	 1
    1    22	 1
    1    46	 1
    2    25	 1
    2    21	 1
    2    18	 1
    2    45	 1
    2    17	 1
    2    13	 1
    2     7	 1
    2     5	 1
    3    20	 1
    3    19	 1
    3    44	 1
    3     6	 1
    3     8	 1
    3    16	 1
    3    42	 1
    3    43	 1
    3    15	 1
    3    14	 1
    3    40	 1
    4    36	 1
    4    17	 1
    4    13	 1
    4     7	 1
    4    11	 1
    4    45	 1
    5    12	 1
    5    19	 1
    5    44	 1
    5     8	 1
    5    10	 1
    5    39	 1
    6    18	 1
    6    17	 1
    6    13	 1
    6     9	 1
    6    37	 1
    6    38	 1
    7    10	 1
    7    39	 1
    7    34	 1
    7    16	 1
    7    42	 1
    7    43	 1
    7    15	 1
    7    14	 1
    7    40	 1
    8    11	 1
    8    17	 1
    8    13	 1
    8    35	 1
    8    38	 1
    9    12	 1
    9    39	 1
    9    51	 1
    9    52	 1
    9    53	 1
   10    37	 1
   10    35	 1
   11    12	 1
   11    34	 1
   12    36	 1
   12    18	 1
   12    37	 1
   12    31	 1
   12    41	 1
   13    42	 1
   13    43	 1
   13    32	 1
   13    33	 1
   13    50	 1
   14    17	 1
   14    16	 1
   14    31	 1
   14    41	 1
   15    42	 1
   15    43	 1
   16    40	 1
   16    32	 1
   16    33	 1
   16    50	 1
   17    40	 1
   17    31	 1
   17    41	 1
   18    20	 1
   19    36	 1
   19    25	 1
   19    21	 1
   20    36	 1
   20    45	 1
   20    23	 1
   20    26	 1
   20    48	 1
   21    24	 1
   21    49	 1
   21    47	 1
   21    27	 1
   22    25	 1
   22    48	 1
   22    28	 1
   22    30	 1
   22    29	 1
   23    46	 1
   23    27	 1
   23    49	 1
   24    26	 1
   25    46	 1
   25    47	 1
   26    46	 1
   26    47	 1
   31    40	 1
   32    41	 1
   33    41	 1
   34    37	 1
   34    38	 1
   38    39	 1
   40    41	 1
   41    50	 1
   44    45	 1
   47    48	 1
   48    49	 1

[ angles ]
;	ai	  aj	ak funct			c0			  c1			c2			  c3
    2     1    20	5 ;     CG2R61     CG2R67     CG2R67
    2     1    19	5 ;     CG2R61     CG2R67     CG2R61
   20     1    19	5 ;     CG2R67     CG2R67     CG2R61
    3     2     1	5 ;     CG2R61     CG2R61     CG2R67
    3     2    36	5 ;     CG2R61     CG2R61      HGR61
    1     2    36	5 ;     CG2R67     CG2R61      HGR61
   12     3     2	5 ;     CG3C50     CG2R61     CG2R61
   12     3     4	5 ;     CG3C50     CG2R61     CG2R61
    2     3     4	5 ;     CG2R61     CG2R61     CG2R61
    3     4    18	5 ;     CG2R61     CG2R61     CG2R61
    3     4     5	5 ;     CG2R61     CG2R61     OG3R60
   18     4     5	5 ;     CG2R61     CG2R61     OG3R60
    4     5     6	5 ;     CG2R61     OG3R60     CG2R61
    7     6     5	5 ;     CG2R61     CG2R61     OG3R60
    7     6    11	5 ;     CG2R61     CG2R61     CG2R61
    5     6    11	5 ;     OG3R60     CG2R61     CG2R61
   12     7     8	5 ;     CG3C50     CG2R61     CG2R61
   12     7     6	5 ;     CG3C50     CG2R61     CG2R61
    8     7     6	5 ;     CG2R61     CG2R61     CG2R61
    7     8     9	5 ;     CG2R61     CG2R61     CG2R61
    7     8    37	5 ;     CG2R61     CG2R61      HGR61
    9     8    37	5 ;     CG2R61     CG2R61      HGR61
    8     9    34	5 ;     CG2R61     CG2R61      OG301
    8     9    10	5 ;     CG2R61     CG2R61     CG2R61
   34     9    10	5 ;      OG301     CG2R61     CG2R61
    9    10    11	5 ;     CG2R61     CG2R61     CG2R61
    9    10    38	5 ;     CG2R61     CG2R61      HGR61
   11    10    38	5 ;     CG2R61     CG2R61      HGR61
    6    11    10	5 ;     CG2R61     CG2R61     CG2R61
    6    11    39	5 ;     CG2R61     CG2R61      HGR61
   10    11    39	5 ;     CG2R61     CG2R61      HGR61
   17    12    13	5 ;     CG3C52     CG3C50      NG3P2
   17    12     3	5 ;     CG3C52     CG3C50     CG2R61
   17    12     7	5 ;     CG3C52     CG3C50     CG2R61
   13    12     3	5 ;      NG3P2     CG3C50     CG2R61
   13    12     7	5 ;      NG3P2     CG3C50     CG2R61
    3    12     7	5 ;     CG2R61     CG3C50     CG2R61
   15    13    12	5 ;     CG3C53      NG3P2     CG3C50
   15    13    14	5 ;     CG3C53      NG3P2       HGP2
   15    13    40	5 ;     CG3C53      NG3P2       HGP2
   12    13    14	5 ;     CG3C50      NG3P2       HGP2
   12    13    40	5 ;     CG3C50      NG3P2       HGP2
   14    13    40	5 ;       HGP2      NG3P2       HGP2
   16    15    31	5 ;     OG3C51     CG3C53      NG3P3
   16    15    13	5 ;     OG3C51     CG3C53      NG3P2
   16    15    41	5 ;     OG3C51     CG3C53       HGA1
   31    15    13	5 ;      NG3P3     CG3C53      NG3P2
   31    15    41	5 ;      NG3P3     CG3C53       HGA1
   13    15    41	5 ;      NG3P2     CG3C53       HGA1
   17    16    15	5 ;     CG3C52     OG3C51     CG3C53
   16    17    12	5 ;     OG3C51     CG3C52     CG3C50
   16    17    42	5 ;     OG3C51     CG3C52       HGA2
   16    17    43	5 ;     OG3C51     CG3C52       HGA2
   12    17    42	5 ;     CG3C50     CG3C52       HGA2
   12    17    43	5 ;     CG3C50     CG3C52       HGA2
   42    17    43	5 ;       HGA2     CG3C52       HGA2
    4    18    19	5 ;     CG2R61     CG2R61     CG2R61
    4    18    44	5 ;     CG2R61     CG2R61      HGR61
   19    18    44	5 ;     CG2R61     CG2R61      HGR61
    1    19    18	5 ;     CG2R67     CG2R61     CG2R61
    1    19    45	5 ;     CG2R67     CG2R61      HGR61
   18    19    45	5 ;     CG2R61     CG2R61      HGR61
   25    20     1	5 ;     CG2R61     CG2R67     CG2R67
   25    20    21	5 ;     CG2R61     CG2R67     CG2R61
    1    20    21	5 ;     CG2R67     CG2R67     CG2R61
   20    21    22	5 ;     CG2R67     CG2R61     CG2R61
   20    21    46	5 ;     CG2R67     CG2R61      HGR61
   22    21    46	5 ;     CG2R61     CG2R61      HGR61
   23    22    21	5 ;     CG2R61     CG2R61     CG2R61
   23    22    26	5 ;     CG2R61     CG2R61      OG301
   21    22    26	5 ;     CG2R61     CG2R61      OG301
   24    23    22	5 ;     CG2R61     CG2R61     CG2R61
   24    23    47	5 ;     CG2R61     CG2R61      HGR61
   22    23    47	5 ;     CG2R61     CG2R61      HGR61
   25    24    23	5 ;     CG2R61     CG2R61     CG2R61
   25    24    48	5 ;     CG2R61     CG2R61      HGR61
   23    24    48	5 ;     CG2R61     CG2R61      HGR61
   24    25    20	5 ;     CG2R61     CG2R61     CG2R67
   24    25    49	5 ;     CG2R61     CG2R61      HGR61
   20    25    49	5 ;     CG2R67     CG2R61      HGR61
   22    26    27	5 ;     CG2R61      OG301      CG302
   28    27    26	5 ;       FGA3      CG302      OG301
   28    27    30	5 ;       FGA3      CG302       FGA3
   28    27    29	5 ;       FGA3      CG302       FGA3
   26    27    30	5 ;      OG301      CG302       FGA3
   26    27    29	5 ;      OG301      CG302       FGA3
   30    27    29	5 ;       FGA3      CG302       FGA3
   32    31    15	5 ;       HGP2      NG3P3     CG3C53
   32    31    33	5 ;       HGP2      NG3P3       HGP2
   32    31    50	5 ;       HGP2      NG3P3       HGP2
   15    31    33	5 ;     CG3C53      NG3P3       HGP2
   15    31    50	5 ;     CG3C53      NG3P3       HGP2
   33    31    50	5 ;       HGP2      NG3P3       HGP2
   35    34     9	5 ;      CG331      OG301     CG2R61
   34    35    51	5 ;      OG301      CG331       HGA3
   34    35    52	5 ;      OG301      CG331       HGA3
   34    35    53	5 ;      OG301      CG331       HGA3
   51    35    52	5 ;       HGA3      CG331       HGA3
   51    35    53	5 ;       HGA3      CG331       HGA3
   52    35    53	5 ;       HGA3      CG331       HGA3

[ dihedrals ]
;	ai	  aj	ak	  al funct			  c0			c1			  c2			c3			  c4			c5
   20     1     2     3	 9 ;     CG2R67     CG2R67     CG2R61     CG2R61
   20     1     2    36	 9 ;     CG2R67     CG2R67     CG2R61      HGR61
   19     1     2     3	 9 ;     CG2R61     CG2R67     CG2R61     CG2R61
   19     1     2    36	 9 ;     CG2R61     CG2R67     CG2R61      HGR61
    2     1    20    25	 9 ;     CG2R61     CG2R67     CG2R67     CG2R61
    2     1    20    21	 9 ;     CG2R61     CG2R67     CG2R67     CG2R61
   19     1    20    25	 9 ;     CG2R61     CG2R67     CG2R67     CG2R61
   19     1    20    21	 9 ;     CG2R61     CG2R67     CG2R67     CG2R61
    2     1    19    18	 9 ;     CG2R61     CG2R67     CG2R61     CG2R61
    2     1    19    45	 9 ;     CG2R61     CG2R67     CG2R61      HGR61
   20     1    19    18	 9 ;     CG2R67     CG2R67     CG2R61     CG2R61
   20     1    19    45	 9 ;     CG2R67     CG2R67     CG2R61      HGR61
    1     2     3    12	 9 ;     CG2R67     CG2R61     CG2R61     CG3C50
    1     2     3     4	 9 ;     CG2R67     CG2R61     CG2R61     CG2R61
   36     2     3    12	 9 ;      HGR61     CG2R61     CG2R61     CG3C50
   36     2     3     4	 9 ;      HGR61     CG2R61     CG2R61     CG2R61
    2     3    12    17	 9 ;     CG2R61     CG2R61     CG3C50     CG3C52
    2     3    12    13	 9 ;     CG2R61     CG2R61     CG3C50      NG3P2
    2     3    12     7	 9 ;     CG2R61     CG2R61     CG3C50     CG2R61
    4     3    12    17	 9 ;     CG2R61     CG2R61     CG3C50     CG3C52
    4     3    12    13	 9 ;     CG2R61     CG2R61     CG3C50      NG3P2
    4     3    12     7	 9 ;     CG2R61     CG2R61     CG3C50     CG2R61
   12     3     4    18	 9 ;     CG3C50     CG2R61     CG2R61     CG2R61
   12     3     4     5	 9 ;     CG3C50     CG2R61     CG2R61     OG3R60
    2     3     4    18	 9 ;     CG2R61     CG2R61     CG2R61     CG2R61
    2     3     4     5	 9 ;     CG2R61     CG2R61     CG2R61     OG3R60
    3     4    18    19	 9 ;     CG2R61     CG2R61     CG2R61     CG2R61
    3     4    18    44	 9 ;     CG2R61     CG2R61     CG2R61      HGR61
    5     4    18    19	 9 ;     OG3R60     CG2R61     CG2R61     CG2R61
    5     4    18    44	 9 ;     OG3R60     CG2R61     CG2R61      HGR61
    3     4     5     6	 9 ;     CG2R61     CG2R61     OG3R60     CG2R61
   18     4     5     6	 9 ;     CG2R61     CG2R61     OG3R60     CG2R61
    4     5     6     7	 9 ;     CG2R61     OG3R60     CG2R61     CG2R61
    4     5     6    11	 9 ;     CG2R61     OG3R60     CG2R61     CG2R61
    5     6     7    12	 9 ;     OG3R60     CG2R61     CG2R61     CG3C50
    5     6     7     8	 9 ;     OG3R60     CG2R61     CG2R61     CG2R61
   11     6     7    12	 9 ;     CG2R61     CG2R61     CG2R61     CG3C50
   11     6     7     8	 9 ;     CG2R61     CG2R61     CG2R61     CG2R61
    7     6    11    10	 9 ;     CG2R61     CG2R61     CG2R61     CG2R61
    7     6    11    39	 9 ;     CG2R61     CG2R61     CG2R61      HGR61
    5     6    11    10	 9 ;     OG3R60     CG2R61     CG2R61     CG2R61
    5     6    11    39	 9 ;     OG3R60     CG2R61     CG2R61      HGR61
    8     7    12    17	 9 ;     CG2R61     CG2R61     CG3C50     CG3C52
    8     7    12    13	 9 ;     CG2R61     CG2R61     CG3C50      NG3P2
    8     7    12     3	 9 ;     CG2R61     CG2R61     CG3C50     CG2R61
    6     7    12    17	 9 ;     CG2R61     CG2R61     CG3C50     CG3C52
    6     7    12    13	 9 ;     CG2R61     CG2R61     CG3C50      NG3P2
    6     7    12     3	 9 ;     CG2R61     CG2R61     CG3C50     CG2R61
   12     7     8     9	 9 ;     CG3C50     CG2R61     CG2R61     CG2R61
   12     7     8    37	 9 ;     CG3C50     CG2R61     CG2R61      HGR61
    6     7     8     9	 9 ;     CG2R61     CG2R61     CG2R61     CG2R61
    6     7     8    37	 9 ;     CG2R61     CG2R61     CG2R61      HGR61
    7     8     9    34	 9 ;     CG2R61     CG2R61     CG2R61      OG301
    7     8     9    10	 9 ;     CG2R61     CG2R61     CG2R61     CG2R61
   37     8     9    34	 9 ;      HGR61     CG2R61     CG2R61      OG301
   37     8     9    10	 9 ;      HGR61     CG2R61     CG2R61     CG2R61
    8     9    34    35	 9 ;     CG2R61     CG2R61      OG301      CG331
   10     9    34    35	 9 ;     CG2R61     CG2R61      OG301      CG331
    8     9    10    11	 9 ;     CG2R61     CG2R61     CG2R61     CG2R61
    8     9    10    38	 9 ;     CG2R61     CG2R61     CG2R61      HGR61
   34     9    10    11	 9 ;      OG301     CG2R61     CG2R61     CG2R61
   34     9    10    38	 9 ;      OG301     CG2R61     CG2R61      HGR61
    9    10    11     6	 9 ;     CG2R61     CG2R61     CG2R61     CG2R61
    9    10    11    39	 9 ;     CG2R61     CG2R61     CG2R61      HGR61
   38    10    11     6	 9 ;      HGR61     CG2R61     CG2R61     CG2R61
   38    10    11    39	 9 ;      HGR61     CG2R61     CG2R61      HGR61
   13    12    17    16	 9 ;      NG3P2     CG3C50     CG3C52     OG3C51
   13    12    17    42	 9 ;      NG3P2     CG3C50     CG3C52       HGA2
   13    12    17    43	 9 ;      NG3P2     CG3C50     CG3C52       HGA2
    3    12    17    16	 9 ;     CG2R61     CG3C50     CG3C52     OG3C51
    3    12    17    42	 9 ;     CG2R61     CG3C50     CG3C52       HGA2
    3    12    17    43	 9 ;     CG2R61     CG3C50     CG3C52       HGA2
    7    12    17    16	 9 ;     CG2R61     CG3C50     CG3C52     OG3C51
    7    12    17    42	 9 ;     CG2R61     CG3C50     CG3C52       HGA2
    7    12    17    43	 9 ;     CG2R61     CG3C50     CG3C52       HGA2
   17    12    13    15	 9 ;     CG3C52     CG3C50      NG3P2     CG3C53
   17    12    13    14	 9 ;     CG3C52     CG3C50      NG3P2       HGP2
   17    12    13    40	 9 ;     CG3C52     CG3C50      NG3P2       HGP2
    3    12    13    15	 9 ;     CG2R61     CG3C50      NG3P2     CG3C53
    3    12    13    14	 9 ;     CG2R61     CG3C50      NG3P2       HGP2
    3    12    13    40	 9 ;     CG2R61     CG3C50      NG3P2       HGP2
    7    12    13    15	 9 ;     CG2R61     CG3C50      NG3P2     CG3C53
    7    12    13    14	 9 ;     CG2R61     CG3C50      NG3P2       HGP2
    7    12    13    40	 9 ;     CG2R61     CG3C50      NG3P2       HGP2
   12    13    15    16	 9 ;     CG3C50      NG3P2     CG3C53     OG3C51
   12    13    15    31	 9 ;     CG3C50      NG3P2     CG3C53      NG3P3
   12    13    15    41	 9 ;     CG3C50      NG3P2     CG3C53       HGA1
   14    13    15    16	 9 ;       HGP2      NG3P2     CG3C53     OG3C51
   14    13    15    31	 9 ;       HGP2      NG3P2     CG3C53      NG3P3
   14    13    15    41	 9 ;       HGP2      NG3P2     CG3C53       HGA1
   40    13    15    16	 9 ;       HGP2      NG3P2     CG3C53     OG3C51
   40    13    15    31	 9 ;       HGP2      NG3P2     CG3C53      NG3P3
   40    13    15    41	 9 ;       HGP2      NG3P2     CG3C53       HGA1
   31    15    16    17	 9 ;      NG3P3     CG3C53     OG3C51     CG3C52
   13    15    16    17	 9 ;      NG3P2     CG3C53     OG3C51     CG3C52
   41    15    16    17	 9 ;       HGA1     CG3C53     OG3C51     CG3C52
   16    15    31    32	 9 ;     OG3C51     CG3C53      NG3P3       HGP2
   16    15    31    33	 9 ;     OG3C51     CG3C53      NG3P3       HGP2
   16    15    31    50	 9 ;     OG3C51     CG3C53      NG3P3       HGP2
   13    15    31    32	 9 ;      NG3P2     CG3C53      NG3P3       HGP2
   13    15    31    33	 9 ;      NG3P2     CG3C53      NG3P3       HGP2
   13    15    31    50	 9 ;      NG3P2     CG3C53      NG3P3       HGP2
   41    15    31    32	 9 ;       HGA1     CG3C53      NG3P3       HGP2
   41    15    31    33	 9 ;       HGA1     CG3C53      NG3P3       HGP2
   41    15    31    50	 9 ;       HGA1     CG3C53      NG3P3       HGP2
   15    16    17    12	 9 ;     CG3C53     OG3C51     CG3C52     CG3C50
   15    16    17    42	 9 ;     CG3C53     OG3C51     CG3C52       HGA2
   15    16    17    43	 9 ;     CG3C53     OG3C51     CG3C52       HGA2
    4    18    19     1	 9 ;     CG2R61     CG2R61     CG2R61     CG2R67
    4    18    19    45	 9 ;     CG2R61     CG2R61     CG2R61      HGR61
   44    18    19     1	 9 ;      HGR61     CG2R61     CG2R61     CG2R67
   44    18    19    45	 9 ;      HGR61     CG2R61     CG2R61      HGR61
    1    20    25    24	 9 ;     CG2R67     CG2R67     CG2R61     CG2R61
    1    20    25    49	 9 ;     CG2R67     CG2R67     CG2R61      HGR61
   21    20    25    24	 9 ;     CG2R61     CG2R67     CG2R61     CG2R61
   21    20    25    49	 9 ;     CG2R61     CG2R67     CG2R61      HGR61
   25    20    21    22	 9 ;     CG2R61     CG2R67     CG2R61     CG2R61
   25    20    21    46	 9 ;     CG2R61     CG2R67     CG2R61      HGR61
    1    20    21    22	 9 ;     CG2R67     CG2R67     CG2R61     CG2R61
    1    20    21    46	 9 ;     CG2R67     CG2R67     CG2R61      HGR61
   20    21    22    23	 9 ;     CG2R67     CG2R61     CG2R61     CG2R61
   20    21    22    26	 9 ;     CG2R67     CG2R61     CG2R61      OG301
   46    21    22    23	 9 ;      HGR61     CG2R61     CG2R61     CG2R61
   46    21    22    26	 9 ;      HGR61     CG2R61     CG2R61      OG301
   21    22    23    24	 9 ;     CG2R61     CG2R61     CG2R61     CG2R61
   21    22    23    47	 9 ;     CG2R61     CG2R61     CG2R61      HGR61
   26    22    23    24	 9 ;      OG301     CG2R61     CG2R61     CG2R61
   26    22    23    47	 9 ;      OG301     CG2R61     CG2R61      HGR61
   23    22    26    27	 9 ;     CG2R61     CG2R61      OG301      CG302
   21    22    26    27	 9 ;     CG2R61     CG2R61      OG301      CG302
   22    23    24    25	 9 ;     CG2R61     CG2R61     CG2R61     CG2R61
   22    23    24    48	 9 ;     CG2R61     CG2R61     CG2R61      HGR61
   47    23    24    25	 9 ;      HGR61     CG2R61     CG2R61     CG2R61
   47    23    24    48	 9 ;      HGR61     CG2R61     CG2R61      HGR61
   23    24    25    20	 9 ;     CG2R61     CG2R61     CG2R61     CG2R67
   23    24    25    49	 9 ;     CG2R61     CG2R61     CG2R61      HGR61
   48    24    25    20	 9 ;      HGR61     CG2R61     CG2R61     CG2R67
   48    24    25    49	 9 ;      HGR61     CG2R61     CG2R61      HGR61
   22    26    27    28	 9 ;     CG2R61      OG301      CG302       FGA3
   22    26    27    30	 9 ;     CG2R61      OG301      CG302       FGA3
   22    26    27    29	 9 ;     CG2R61      OG301      CG302       FGA3
    9    34    35    51	 9 ;     CG2R61      OG301      CG331       HGA3
    9    34    35    52	 9 ;     CG2R61      OG301      CG331       HGA3
    9    34    35    53	 9 ;     CG2R61      OG301      CG331       HGA3

