Glycine aRginine prOline Methionine Alanine Cystine Serine
   53
    1LIG     C1    1  -1.366   0.359  -1.578
    1LIG     C2    2  -1.370   0.492  -1.623
    1LIG     C3    3  -1.474   0.580  -1.589
    1LIG     C4    4  -1.579   0.531  -1.511
    1LIG     O1    5  -1.675   0.613  -1.455
    1LIG     C5    6  -1.681   0.744  -1.497
    1LIG     C6    7  -1.600   0.795  -1.599
    1LIG     C7    8  -1.629   0.922  -1.652
    1LIG     C8    9  -1.715   1.008  -1.583
    1LIG     C9   10  -1.776   0.963  -1.466
    1LIG    C10   11  -1.765   0.830  -1.426
    1LIG    C11   12  -1.464   0.730  -1.612
    1LIG     N1   13  -1.384   0.783  -1.497
    1LIG     HN   14  -1.417   0.800  -1.401
    1LIG    C12   15  -1.268   0.804  -1.544
    1LIG     O2   16  -1.244   0.784  -1.676
    1LIG    C13   17  -1.375   0.769  -1.732
    1LIG    C14   18  -1.584   0.396  -1.476
    1LIG    C15   19  -1.478   0.311  -1.508
    1LIG    C16   20  -1.243   0.278  -1.593
    1LIG    C17   21  -1.232   0.151  -1.536
    1LIG    C18   22  -1.111   0.083  -1.533
    1LIG    C19   23  -1.001   0.135  -1.602
    1LIG    C20   24  -1.010   0.258  -1.665
    1LIG    C21   25  -1.130   0.330  -1.658
    1LIG     O3   26  -1.090  -0.037  -1.471
    1LIG    C22   27  -1.022  -0.036  -1.346
    1LIG     F1   28  -0.892   0.001  -1.353
    1LIG     F2   29  -1.026  -0.160  -1.293
    1LIG     F3   30  -1.086   0.048  -1.261
    1LIG     N2   31  -1.161   0.842  -1.471
    1LIG     H1   32  -1.076   0.793  -1.495
    1LIG     H2   33  -1.182   0.841  -1.372
    1LIG     O4   34  -1.738   1.139  -1.614
    1LIG    C23   35  -1.809   1.166  -1.734
    1LIG     HC   36  -1.289   0.528  -1.686
    1LIG    HC1   37  -1.584   0.954  -1.745
    1LIG    HC2   38  -1.834   1.032  -1.406
    1LIG    HC3   39  -1.820   0.793  -1.341
    1LIG    HN2   40  -1.357   0.689  -1.472
    1LIG    HC4   41  -1.293   0.908  -1.563
    1LIG    HC5   42  -1.376   0.691  -1.808
    1LIG    HC6   43  -1.409   0.864  -1.774
    1LIG    HC7   44  -1.671   0.357  -1.423
    1LIG    HC8   45  -1.483   0.207  -1.479
    1LIG    HC9   46  -1.320   0.104  -1.492
    1LIG   HC10   47  -0.908   0.079  -1.605
    1LIG   HC11   48  -0.926   0.298  -1.719
    1LIG   HC12   49  -1.135   0.427  -1.704
    1LIG    HN1   50  -1.144   0.939  -1.495
    1LIG   HC13   51  -1.821   1.273  -1.747
    1LIG   HC14   52  -1.907   1.119  -1.730
    1LIG   HC15   53  -1.753   1.125  -1.819
   0.00000   0.00000   0.00000
