Gallium Rubidium Oxygen Manganese Argon Carbon Silicon
   48
    1LIG     C1    1  -1.522   0.427  -1.560
    1LIG     C2    2  -1.497   0.560  -1.596
    1LIG     C3    3  -1.601   0.655  -1.604
    1LIG     C4    4  -1.732   0.612  -1.578
    1LIG     C5    5  -1.758   0.478  -1.547
    1LIG     C6    6  -1.653   0.386  -1.540
    1LIG     N1    7  -1.420   0.331  -1.542
    1LIG     C7    8  -1.325   0.330  -1.442
    1LIG     O1    9  -1.314   0.411  -1.351
    1LIG     H1   10  -1.421   0.248  -1.601
    1LIG     C8   11  -1.230   0.213  -1.446
    1LIG     C9   12  -1.262   0.103  -1.525
    1LIG    C10   13  -1.178  -0.008  -1.523
    1LIG    C11   14  -1.064  -0.004  -1.443
    1LIG     CL   15  -0.959  -0.140  -1.435
    1LIG    C12   16  -1.038   0.111  -1.370
    1LIG     N2   17  -1.118   0.221  -1.369
    1LIG    HN3   18  -1.095   0.304  -1.315
    1LIG    C13   19  -1.571   0.802  -1.637
    1LIG     N3   20  -1.613   0.896  -1.528
    1LIG    C14   21  -1.704   0.972  -1.580
    1LIG    HN4   22  -1.578   0.899  -1.432
    1LIG     N4   23  -1.732   0.952  -1.710
    1LIG    C15   24  -1.832   1.020  -1.790
    1LIG    C16   25  -1.653   0.852  -1.757
    1LIG     O2   26  -1.646   0.813  -1.873
    1LIG    C17   27  -1.422   0.826  -1.661
    1LIG     N5   28  -1.766   1.068  -1.507
    1LIG     H2   29  -1.836   1.117  -1.561
    1LIG     H3   30  -1.798   1.042  -1.415
    1LIG     HC   31  -1.395   0.591  -1.618
    1LIG    HC1   32  -1.813   0.683  -1.582
    1LIG    HC2   33  -1.859   0.446  -1.530
    1LIG    HC3   34  -1.675   0.282  -1.518
    1LIG    HC4   35  -1.351   0.103  -1.586
    1LIG    HC5   36  -1.200  -0.095  -1.582
    1LIG    HC6   37  -0.948   0.114  -1.311
    1LIG    HN2   38  -1.685   0.830  -1.499
    1LIG    HC7   39  -1.781   0.900  -1.551
    1LIG    HC8   40  -1.830   0.980  -1.891
    1LIG    HC9   41  -1.811   1.126  -1.791
    1LIG   HC10   42  -1.931   1.003  -1.747
    1LIG   HC11   43  -1.405   0.932  -1.685
    1LIG   HC12   44  -1.388   0.765  -1.744
    1LIG   HC13   45  -1.366   0.801  -1.571
    1LIG    HN1   46  -1.694   1.137  -1.490
    1LIG    H22   47  -1.177   0.259  -1.530
    1LIG    LP1   48  -0.859  -0.270  -1.427
   0.00000   0.00000   0.00000
