; Created by cgenff_charmm2gmx.py

[ moleculetype ]
; Name			   nrexcl
LIG				 3

[ atoms ]
;	 nr		  type	resnr residue  atom   cgnr	   charge		mass  typeB    chargeB		massB
; residue	 1 LIG rtp LIG q	qsum
     1     CG2R61      1    LIG     C1      1      0.149     12.011   ;
     2     CG2R61      1    LIG     C2      2     -0.136     12.011   ;
     3     CG2R61      1    LIG     C3      3     -0.053     12.011   ;
     4     CG2R61      1    LIG     C4      4     -0.133     12.011   ;
     5     CG2R61      1    LIG     C5      5     -0.102     12.011   ;
     6     CG2R61      1    LIG     C6      6     -0.119     12.011   ;
     7      NG2S1      1    LIG     N1      7     -0.504     14.007   ;
     8      CG2O1      1    LIG     C7      8      0.362     12.011   ;
     9      OG2D1      1    LIG     O1      9     -0.480     15.999   ;
    10       HGP1      1    LIG     H1     10      0.329      1.008   ;
    11      CG311      1    LIG     C8     11      0.436     12.011   ;
    12     CG2DC1      1    LIG     C9     12     -0.316     12.011   ;
    13     CG2DC1      1    LIG    C10     13     -0.198     12.011   ;
    14     CG2DC2      1    LIG    C11     14      0.029     12.011   ;
    15      CLGA1      1    LIG     CL     15     -0.066     35.453   ;
    16     CG2D2O      1    LIG    C12     16     -0.138     12.011   ;
    17      NG311      1    LIG     N2     17     -0.573     14.007   ;
    18     HGPAM1      1    LIG    HN3     18      0.375      1.008   ;
    19     CG3C50      1    LIG    C13     19      1.372     12.011   ;
    20      NG3P2      1    LIG     N3     20     -0.646     14.007   ;
    21     CG3C53      1    LIG    C14     21      0.785     12.011   ;
    22       HGP2      1    LIG    HN4     22      0.336      1.008   ;
    23     NG2R53      1    LIG     N4     23     -0.173     14.007   ;
    24      CG331      1    LIG    C15     24     -0.169     12.011   ;
    25     CG2R53      1    LIG    C16     25     -0.351     12.011   ;
    26      OG2D1      1    LIG     O2     26     -0.351     15.999   ;
    27      CG331      1    LIG    C17     27     -0.320     12.011   ;
    28      NG3P3      1    LIG     N5     28     -0.267     14.007   ;
    29       HGP2      1    LIG     H2     29      0.301      1.008   ;
    30       HGP2      1    LIG     H3     30      0.301      1.008   ;
    31      HGR61      1    LIG     HC     31      0.116      1.008   ;
    32      HGR61      1    LIG    HC1     32      0.116      1.008   ;
    33      HGR61      1    LIG    HC2     33      0.116      1.008   ;
    34      HGR61      1    LIG    HC3     34      0.116      1.008   ;
    35       HGA4      1    LIG    HC4     35      0.154      1.008   ;
    36       HGA4      1    LIG    HC5     36      0.150      1.008   ;
    37       HGA4      1    LIG    HC6     37      0.162      1.008   ;
    38       HGP2      1    LIG    HN2     38      0.336      1.008   ;
    39       HGA1      1    LIG    HC7     39      0.073      1.008   ;
    40       HGA3      1    LIG    HC8     40      0.090      1.008   ;
    41       HGA3      1    LIG    HC9     41      0.090      1.008   ;
    42       HGA3      1    LIG   HC10     42      0.090      1.008   ;
    43       HGA3      1    LIG   HC11     43      0.090      1.008   ;
    44       HGA3      1    LIG   HC12     44      0.090      1.008   ;
    45       HGA3      1    LIG   HC13     45      0.090      1.008   ;
    46       HGP2      1    LIG    HN1     46      0.301      1.008   ;
    47       HGA1      1    LIG    H22     47      0.090      1.008   ;
    48        LPH      1    LIG    LP1     48      0.050      0.000   ;

[ bonds ]
;	ai	  aj funct			  c0			c1			  c2			c3
    1     2	 1 ;      CG2R61     CG2R61
    1     7	 1 ;      CG2R61      NG2S1
    1     6	 1 ;      CG2R61     CG2R61
    2     3	 1 ;      CG2R61     CG2R61
    2    31	 1 ;      CG2R61      HGR61
    3    19	 1 ;      CG2R61     CG3C50
    3     4	 1 ;      CG2R61     CG2R61
    4     5	 1 ;      CG2R61     CG2R61
    4    32	 1 ;      CG2R61      HGR61
    5     6	 1 ;      CG2R61     CG2R61
    5    33	 1 ;      CG2R61      HGR61
    6    34	 1 ;      CG2R61      HGR61
    7     8	 1 ;       NG2S1      CG2O1
    7    10	 1 ;       NG2S1       HGP1
    8    11	 1 ;       CG2O1      CG311
    8     9	 1 ;       CG2O1      OG2D1
   11    17	 1 ;       CG311      NG311
   11    12	 1 ;       CG311     CG2DC1
   11    47	 1 ;       CG311       HGA1
   12    13	 1 ;      CG2DC1     CG2DC1
   12    35	 1 ;      CG2DC1       HGA4
   13    14	 1 ;      CG2DC1     CG2DC2
   13    36	 1 ;      CG2DC1       HGA4
   14    15	 1 ;      CG2DC2      CLGA1
   14    16	 1 ;      CG2DC2     CG2D2O
   16    17	 1 ;      CG2D2O      NG311
   16    37	 1 ;      CG2D2O       HGA4
   17    18	 1 ;       NG311     HGPAM1
   19    27	 1 ;      CG3C50      CG331
   19    25	 1 ;      CG3C50     CG2R53
   19    20	 1 ;      CG3C50      NG3P2
   20    22	 1 ;       NG3P2       HGP2
   20    21	 1 ;       NG3P2     CG3C53
   20    38	 1 ;       NG3P2       HGP2
   21    23	 1 ;      CG3C53     NG2R53
   21    28	 1 ;      CG3C53      NG3P3
   21    39	 1 ;      CG3C53       HGA1
   23    25	 1 ;      NG2R53     CG2R53
   23    24	 1 ;      NG2R53      CG331
   24    40	 1 ;       CG331       HGA3
   24    41	 1 ;       CG331       HGA3
   24    42	 1 ;       CG331       HGA3
   25    26	 1 ;      CG2R53      OG2D1
   27    43	 1 ;       CG331       HGA3
   27    44	 1 ;       CG331       HGA3
   27    45	 1 ;       CG331       HGA3
   28    29	 1 ;       NG3P3       HGP2
   28    30	 1 ;       NG3P3       HGP2
   28    46	 1 ;       NG3P3       HGP2

[ pairs ]
;	ai	  aj funct			  c0			c1			  c2			c3
    1    19	 1
    1     4	 1
    1    33	 1
    1    11	 1
    1     9	 1
    2     8	 1
    2    10	 1
    2     5	 1
    2    34	 1
    2    27	 1
    2    25	 1
    2    20	 1
    2    32	 1
    3     7	 1
    3     6	 1
    3    33	 1
    3    43	 1
    3    44	 1
    3    45	 1
    3    26	 1
    3    23	 1
    3    22	 1
    3    21	 1
    3    38	 1
    4    31	 1
    4    27	 1
    4    25	 1
    4    20	 1
    4    34	 1
    5     7	 1
    5    19	 1
    6    31	 1
    6     8	 1
    6    10	 1
    6    32	 1
    7    31	 1
    7    34	 1
    7    17	 1
    7    12	 1
    7    47	 1
    8    16	 1
    8    18	 1
    8    13	 1
    8    35	 1
    9    10	 1
    9    17	 1
    9    12	 1
    9    47	 1
   10    11	 1
   11    14	 1
   11    36	 1
   11    37	 1
   12    16	 1
   12    18	 1
   12    15	 1
   48    12	 1
   13    17	 1
   13    47	 1
   13    37	 1
   14    35	 1
   14    18	 1
   15    36	 1
   48    36	 1
   15    17	 1
   48    17	 1
   15    37	 1
   48    37	 1
   16    47	 1
   16    36	 1
   17    35	 1
   18    47	 1
   18    37	 1
   19    31	 1
   19    32	 1
   19    28	 1
   19    39	 1
   19    24	 1
   20    43	 1
   20    44	 1
   20    45	 1
   20    26	 1
   20    24	 1
   20    29	 1
   20    30	 1
   20    46	 1
   21    27	 1
   21    26	 1
   21    40	 1
   21    41	 1
   21    42	 1
   22    27	 1
   22    25	 1
   22    23	 1
   22    28	 1
   22    39	 1
   23    27	 1
   23    38	 1
   23    29	 1
   23    30	 1
   23    46	 1
   24    28	 1
   24    39	 1
   24    26	 1
   25    43	 1
   25    44	 1
   25    45	 1
   25    38	 1
   25    28	 1
   25    39	 1
   25    40	 1
   25    41	 1
   25    42	 1
   26    27	 1
   27    38	 1
   28    38	 1
   29    39	 1
   30    39	 1
   32    33	 1
   33    34	 1
   35    47	 1
   35    36	 1
   38    39	 1
   39    46	 1

[ angles ]
;	ai	  aj	ak funct			c0			  c1			c2			  c3
    2     1     7	5 ;     CG2R61     CG2R61      NG2S1
    2     1     6	5 ;     CG2R61     CG2R61     CG2R61
    7     1     6	5 ;      NG2S1     CG2R61     CG2R61
    3     2     1	5 ;     CG2R61     CG2R61     CG2R61
    3     2    31	5 ;     CG2R61     CG2R61      HGR61
    1     2    31	5 ;     CG2R61     CG2R61      HGR61
   19     3     2	5 ;     CG3C50     CG2R61     CG2R61
   19     3     4	5 ;     CG3C50     CG2R61     CG2R61
    2     3     4	5 ;     CG2R61     CG2R61     CG2R61
    3     4     5	5 ;     CG2R61     CG2R61     CG2R61
    3     4    32	5 ;     CG2R61     CG2R61      HGR61
    5     4    32	5 ;     CG2R61     CG2R61      HGR61
    4     5     6	5 ;     CG2R61     CG2R61     CG2R61
    4     5    33	5 ;     CG2R61     CG2R61      HGR61
    6     5    33	5 ;     CG2R61     CG2R61      HGR61
    1     6     5	5 ;     CG2R61     CG2R61     CG2R61
    1     6    34	5 ;     CG2R61     CG2R61      HGR61
    5     6    34	5 ;     CG2R61     CG2R61      HGR61
    8     7    10	5 ;      CG2O1      NG2S1       HGP1
    8     7     1	5 ;      CG2O1      NG2S1     CG2R61
   10     7     1	5 ;       HGP1      NG2S1     CG2R61
   11     8     7	5 ;      CG311      CG2O1      NG2S1
   11     8     9	5 ;      CG311      CG2O1      OG2D1
    7     8     9	5 ;      NG2S1      CG2O1      OG2D1
   17    11    12	5 ;      NG311      CG311     CG2DC1
   17    11     8	5 ;      NG311      CG311      CG2O1
   17    11    47	5 ;      NG311      CG311       HGA1
   12    11     8	5 ;     CG2DC1      CG311      CG2O1
   12    11    47	5 ;     CG2DC1      CG311       HGA1
    8    11    47	5 ;      CG2O1      CG311       HGA1
   13    12    11	5 ;     CG2DC1     CG2DC1      CG311
   13    12    35	5 ;     CG2DC1     CG2DC1       HGA4
   11    12    35	5 ;      CG311     CG2DC1       HGA4
   14    13    12	5 ;     CG2DC2     CG2DC1     CG2DC1
   14    13    36	5 ;     CG2DC2     CG2DC1       HGA4
   12    13    36	5 ;     CG2DC1     CG2DC1       HGA4
   15    14    16	5 ;      CLGA1     CG2DC2     CG2D2O
   15    14    13	5 ;      CLGA1     CG2DC2     CG2DC1
   16    14    13	5 ;     CG2D2O     CG2DC2     CG2DC1
   14    16    17	5 ;     CG2DC2     CG2D2O      NG311
   14    16    37	5 ;     CG2DC2     CG2D2O       HGA4
   17    16    37	5 ;      NG311     CG2D2O       HGA4
   16    17    18	5 ;     CG2D2O      NG311     HGPAM1
   16    17    11	5 ;     CG2D2O      NG311      CG311
   18    17    11	5 ;     HGPAM1      NG311      CG311
   27    19    25	5 ;      CG331     CG3C50     CG2R53
   27    19     3	5 ;      CG331     CG3C50     CG2R61
   27    19    20	5 ;      CG331     CG3C50      NG3P2
   25    19     3	5 ;     CG2R53     CG3C50     CG2R61
   25    19    20	5 ;     CG2R53     CG3C50      NG3P2
    3    19    20	5 ;     CG2R61     CG3C50      NG3P2
   19    20    22	5 ;     CG3C50      NG3P2       HGP2
   19    20    21	5 ;     CG3C50      NG3P2     CG3C53
   19    20    38	5 ;     CG3C50      NG3P2       HGP2
   22    20    21	5 ;       HGP2      NG3P2     CG3C53
   22    20    38	5 ;       HGP2      NG3P2       HGP2
   21    20    38	5 ;     CG3C53      NG3P2       HGP2
   23    21    20	5 ;     NG2R53     CG3C53      NG3P2
   23    21    28	5 ;     NG2R53     CG3C53      NG3P3
   23    21    39	5 ;     NG2R53     CG3C53       HGA1
   20    21    28	5 ;      NG3P2     CG3C53      NG3P3
   20    21    39	5 ;      NG3P2     CG3C53       HGA1
   28    21    39	5 ;      NG3P3     CG3C53       HGA1
   25    23    24	5 ;     CG2R53     NG2R53      CG331
   25    23    21	5 ;     CG2R53     NG2R53     CG3C53
   24    23    21	5 ;      CG331     NG2R53     CG3C53
   23    24    40	5 ;     NG2R53      CG331       HGA3
   23    24    41	5 ;     NG2R53      CG331       HGA3
   23    24    42	5 ;     NG2R53      CG331       HGA3
   40    24    41	5 ;       HGA3      CG331       HGA3
   40    24    42	5 ;       HGA3      CG331       HGA3
   41    24    42	5 ;       HGA3      CG331       HGA3
   26    25    19	5 ;      OG2D1     CG2R53     CG3C50
   26    25    23	5 ;      OG2D1     CG2R53     NG2R53
   19    25    23	5 ;     CG3C50     CG2R53     NG2R53
   19    27    43	5 ;     CG3C50      CG331       HGA3
   19    27    44	5 ;     CG3C50      CG331       HGA3
   19    27    45	5 ;     CG3C50      CG331       HGA3
   43    27    44	5 ;       HGA3      CG331       HGA3
   43    27    45	5 ;       HGA3      CG331       HGA3
   44    27    45	5 ;       HGA3      CG331       HGA3
   21    28    29	5 ;     CG3C53      NG3P3       HGP2
   21    28    30	5 ;     CG3C53      NG3P3       HGP2
   21    28    46	5 ;     CG3C53      NG3P3       HGP2
   29    28    30	5 ;       HGP2      NG3P3       HGP2
   29    28    46	5 ;       HGP2      NG3P3       HGP2
   30    28    46	5 ;       HGP2      NG3P3       HGP2

[ dihedrals ]
;	ai	  aj	ak	  al funct			  c0			c1			  c2			c3			  c4			c5
    7     1     2     3	 9 ;      NG2S1     CG2R61     CG2R61     CG2R61
    7     1     2    31	 9 ;      NG2S1     CG2R61     CG2R61      HGR61
    6     1     2     3	 9 ;     CG2R61     CG2R61     CG2R61     CG2R61
    6     1     2    31	 9 ;     CG2R61     CG2R61     CG2R61      HGR61
    2     1     7     8	 9 ;     CG2R61     CG2R61      NG2S1      CG2O1
    2     1     7    10	 9 ;     CG2R61     CG2R61      NG2S1       HGP1
    6     1     7     8	 9 ;     CG2R61     CG2R61      NG2S1      CG2O1
    6     1     7    10	 9 ;     CG2R61     CG2R61      NG2S1       HGP1
    2     1     6     5	 9 ;     CG2R61     CG2R61     CG2R61     CG2R61
    2     1     6    34	 9 ;     CG2R61     CG2R61     CG2R61      HGR61
    7     1     6     5	 9 ;      NG2S1     CG2R61     CG2R61     CG2R61
    7     1     6    34	 9 ;      NG2S1     CG2R61     CG2R61      HGR61
    1     2     3    19	 9 ;     CG2R61     CG2R61     CG2R61     CG3C50
    1     2     3     4	 9 ;     CG2R61     CG2R61     CG2R61     CG2R61
   31     2     3    19	 9 ;      HGR61     CG2R61     CG2R61     CG3C50
   31     2     3     4	 9 ;      HGR61     CG2R61     CG2R61     CG2R61
    2     3    19    27	 9 ;     CG2R61     CG2R61     CG3C50      CG331
    2     3    19    25	 9 ;     CG2R61     CG2R61     CG3C50     CG2R53
    2     3    19    20	 9 ;     CG2R61     CG2R61     CG3C50      NG3P2
    4     3    19    27	 9 ;     CG2R61     CG2R61     CG3C50      CG331
    4     3    19    25	 9 ;     CG2R61     CG2R61     CG3C50     CG2R53
    4     3    19    20	 9 ;     CG2R61     CG2R61     CG3C50      NG3P2
   19     3     4     5	 9 ;     CG3C50     CG2R61     CG2R61     CG2R61
   19     3     4    32	 9 ;     CG3C50     CG2R61     CG2R61      HGR61
    2     3     4     5	 9 ;     CG2R61     CG2R61     CG2R61     CG2R61
    2     3     4    32	 9 ;     CG2R61     CG2R61     CG2R61      HGR61
    3     4     5     6	 9 ;     CG2R61     CG2R61     CG2R61     CG2R61
    3     4     5    33	 9 ;     CG2R61     CG2R61     CG2R61      HGR61
   32     4     5     6	 9 ;      HGR61     CG2R61     CG2R61     CG2R61
   32     4     5    33	 9 ;      HGR61     CG2R61     CG2R61      HGR61
    4     5     6     1	 9 ;     CG2R61     CG2R61     CG2R61     CG2R61
    4     5     6    34	 9 ;     CG2R61     CG2R61     CG2R61      HGR61
   33     5     6     1	 9 ;      HGR61     CG2R61     CG2R61     CG2R61
   33     5     6    34	 9 ;      HGR61     CG2R61     CG2R61      HGR61
   10     7     8    11	 9 ;       HGP1      NG2S1      CG2O1      CG311
   10     7     8     9	 9 ;       HGP1      NG2S1      CG2O1      OG2D1
    1     7     8    11	 9 ;     CG2R61      NG2S1      CG2O1      CG311
    1     7     8     9	 9 ;     CG2R61      NG2S1      CG2O1      OG2D1
    7     8    11    17	 9 ;      NG2S1      CG2O1      CG311      NG311
    7     8    11    12	 9 ;      NG2S1      CG2O1      CG311     CG2DC1
    7     8    11    47	 9 ;      NG2S1      CG2O1      CG311       HGA1
    9     8    11    17	 9 ;      OG2D1      CG2O1      CG311      NG311
    9     8    11    12	 9 ;      OG2D1      CG2O1      CG311     CG2DC1
    9     8    11    47	 9 ;      OG2D1      CG2O1      CG311       HGA1
   12    11    17    16	 9 ;     CG2DC1      CG311      NG311     CG2D2O
   12    11    17    18	 9 ;     CG2DC1      CG311      NG311     HGPAM1
    8    11    17    16	 9 ;      CG2O1      CG311      NG311     CG2D2O
    8    11    17    18	 9 ;      CG2O1      CG311      NG311     HGPAM1
   47    11    17    16	 9 ;       HGA1      CG311      NG311     CG2D2O
   47    11    17    18	 9 ;       HGA1      CG311      NG311     HGPAM1
   17    11    12    13	 9 ;      NG311      CG311     CG2DC1     CG2DC1
   17    11    12    35	 9 ;      NG311      CG311     CG2DC1       HGA4
    8    11    12    13	 9 ;      CG2O1      CG311     CG2DC1     CG2DC1
    8    11    12    35	 9 ;      CG2O1      CG311     CG2DC1       HGA4
   47    11    12    13	 9 ;       HGA1      CG311     CG2DC1     CG2DC1
   47    11    12    35	 9 ;       HGA1      CG311     CG2DC1       HGA4
   11    12    13    14	 9 ;      CG311     CG2DC1     CG2DC1     CG2DC2
   11    12    13    36	 9 ;      CG311     CG2DC1     CG2DC1       HGA4
   35    12    13    14	 9 ;       HGA4     CG2DC1     CG2DC1     CG2DC2
   35    12    13    36	 9 ;       HGA4     CG2DC1     CG2DC1       HGA4
   12    13    14    15	 9 ;     CG2DC1     CG2DC1     CG2DC2      CLGA1
   12    13    14    16	 9 ;     CG2DC1     CG2DC1     CG2DC2     CG2D2O
   36    13    14    15	 9 ;       HGA4     CG2DC1     CG2DC2      CLGA1
   36    13    14    16	 9 ;       HGA4     CG2DC1     CG2DC2     CG2D2O
   15    14    16    17	 9 ;      CLGA1     CG2DC2     CG2D2O      NG311
   15    14    16    37	 9 ;      CLGA1     CG2DC2     CG2D2O       HGA4
   13    14    16    17	 9 ;     CG2DC1     CG2DC2     CG2D2O      NG311
   13    14    16    37	 9 ;     CG2DC1     CG2DC2     CG2D2O       HGA4
   14    16    17    18	 9 ;     CG2DC2     CG2D2O      NG311     HGPAM1
   14    16    17    11	 9 ;     CG2DC2     CG2D2O      NG311      CG311
   37    16    17    18	 9 ;       HGA4     CG2D2O      NG311     HGPAM1
   37    16    17    11	 9 ;       HGA4     CG2D2O      NG311      CG311
   25    19    27    43	 9 ;     CG2R53     CG3C50      CG331       HGA3
   25    19    27    44	 9 ;     CG2R53     CG3C50      CG331       HGA3
   25    19    27    45	 9 ;     CG2R53     CG3C50      CG331       HGA3
    3    19    27    43	 9 ;     CG2R61     CG3C50      CG331       HGA3
    3    19    27    44	 9 ;     CG2R61     CG3C50      CG331       HGA3
    3    19    27    45	 9 ;     CG2R61     CG3C50      CG331       HGA3
   20    19    27    43	 9 ;      NG3P2     CG3C50      CG331       HGA3
   20    19    27    44	 9 ;      NG3P2     CG3C50      CG331       HGA3
   20    19    27    45	 9 ;      NG3P2     CG3C50      CG331       HGA3
   27    19    25    26	 9 ;      CG331     CG3C50     CG2R53      OG2D1
   27    19    25    23	 9 ;      CG331     CG3C50     CG2R53     NG2R53
    3    19    25    26	 9 ;     CG2R61     CG3C50     CG2R53      OG2D1
    3    19    25    23	 9 ;     CG2R61     CG3C50     CG2R53     NG2R53
   20    19    25    26	 9 ;      NG3P2     CG3C50     CG2R53      OG2D1
   20    19    25    23	 9 ;      NG3P2     CG3C50     CG2R53     NG2R53
   27    19    20    22	 9 ;      CG331     CG3C50      NG3P2       HGP2
   27    19    20    21	 9 ;      CG331     CG3C50      NG3P2     CG3C53
   27    19    20    38	 9 ;      CG331     CG3C50      NG3P2       HGP2
   25    19    20    22	 9 ;     CG2R53     CG3C50      NG3P2       HGP2
   25    19    20    21	 9 ;     CG2R53     CG3C50      NG3P2     CG3C53
   25    19    20    38	 9 ;     CG2R53     CG3C50      NG3P2       HGP2
    3    19    20    22	 9 ;     CG2R61     CG3C50      NG3P2       HGP2
    3    19    20    21	 9 ;     CG2R61     CG3C50      NG3P2     CG3C53
    3    19    20    38	 9 ;     CG2R61     CG3C50      NG3P2       HGP2
   19    20    21    23	 9 ;     CG3C50      NG3P2     CG3C53     NG2R53
   19    20    21    28	 9 ;     CG3C50      NG3P2     CG3C53      NG3P3
   19    20    21    39	 9 ;     CG3C50      NG3P2     CG3C53       HGA1
   22    20    21    23	 9 ;       HGP2      NG3P2     CG3C53     NG2R53
   22    20    21    28	 9 ;       HGP2      NG3P2     CG3C53      NG3P3
   22    20    21    39	 9 ;       HGP2      NG3P2     CG3C53       HGA1
   38    20    21    23	 9 ;       HGP2      NG3P2     CG3C53     NG2R53
   38    20    21    28	 9 ;       HGP2      NG3P2     CG3C53      NG3P3
   38    20    21    39	 9 ;       HGP2      NG3P2     CG3C53       HGA1
   20    21    23    25	 9 ;      NG3P2     CG3C53     NG2R53     CG2R53
   20    21    23    24	 9 ;      NG3P2     CG3C53     NG2R53      CG331
   28    21    23    25	 9 ;      NG3P3     CG3C53     NG2R53     CG2R53
   28    21    23    24	 9 ;      NG3P3     CG3C53     NG2R53      CG331
   39    21    23    25	 9 ;       HGA1     CG3C53     NG2R53     CG2R53
   39    21    23    24	 9 ;       HGA1     CG3C53     NG2R53      CG331
   23    21    28    29	 9 ;     NG2R53     CG3C53      NG3P3       HGP2
   23    21    28    30	 9 ;     NG2R53     CG3C53      NG3P3       HGP2
   23    21    28    46	 9 ;     NG2R53     CG3C53      NG3P3       HGP2
   20    21    28    29	 9 ;      NG3P2     CG3C53      NG3P3       HGP2
   20    21    28    30	 9 ;      NG3P2     CG3C53      NG3P3       HGP2
   20    21    28    46	 9 ;      NG3P2     CG3C53      NG3P3       HGP2
   39    21    28    29	 9 ;       HGA1     CG3C53      NG3P3       HGP2
   39    21    28    30	 9 ;       HGA1     CG3C53      NG3P3       HGP2
   39    21    28    46	 9 ;       HGA1     CG3C53      NG3P3       HGP2
   24    23    25    26	 9 ;      CG331     NG2R53     CG2R53      OG2D1
   24    23    25    19	 9 ;      CG331     NG2R53     CG2R53     CG3C50
   21    23    25    26	 9 ;     CG3C53     NG2R53     CG2R53      OG2D1
   21    23    25    19	 9 ;     CG3C53     NG2R53     CG2R53     CG3C50
   25    23    24    40	 9 ;     CG2R53     NG2R53      CG331       HGA3
   25    23    24    41	 9 ;     CG2R53     NG2R53      CG331       HGA3
   25    23    24    42	 9 ;     CG2R53     NG2R53      CG331       HGA3
   21    23    24    40	 9 ;     CG3C53     NG2R53      CG331       HGA3
   21    23    24    41	 9 ;     CG3C53     NG2R53      CG331       HGA3
   21    23    24    42	 9 ;     CG3C53     NG2R53      CG331       HGA3

[ dihedrals ]
;	ai	  aj	ak	  al funct			  c0			c1			  c2			c3
    8    11     7     9	 2
   16    14    17    37	 2
   25    19    23    26	 2

[ virtual_sites2 ]
; Site   from				funct a
   48    15    14     2   -0.164

[ exclusions ]
;	ai	  aj
   15    48
   48    14
   48    16
   48    13
   48    12
   48    36
   48    17
   48    37

