GROtesk MACabre and Sinister
   73
    1LIG     C1    1  -1.844   0.707  -1.644
    1LIG     C2    2  -1.746   0.820  -1.605
    1LIG     O1    3  -1.731   0.814  -1.462
    1LIG     H1    4  -1.636   0.817  -1.439
    1LIG     C3    5  -1.611   0.821  -1.683
    1LIG     N1    6  -1.599   0.946  -1.759
    1LIG     C4    7  -1.557   0.948  -1.891
    1LIG     O2    8  -1.552   0.847  -1.960
    1LIG     C5    9  -1.531   1.087  -1.943
    1LIG     H2   10  -1.587   1.032  -1.707
    1LIG     C6   11  -1.489   0.808  -1.586
    1LIG     C7   12  -1.389   0.699  -1.622
    1LIG     C8   13  -1.276   0.678  -1.542
    1LIG     C9   14  -1.181   0.581  -1.576
    1LIG     F1   15  -1.073   0.564  -1.499
    1LIG    C10   16  -1.197   0.503  -1.691
    1LIG    C11   17  -1.310   0.522  -1.768
    1LIG    C12   18  -1.406   0.618  -1.735
    1LIG     F2   19  -1.327   0.446  -1.877
    1LIG     N2   20  -1.761   0.581  -1.667
    1LIG     H3   21  -1.763   0.563  -1.769
    1LIG     H4   22  -1.663   0.604  -1.648
    1LIG    C13   23  -1.788   0.449  -1.593
    1LIG    C14   24  -1.903   0.374  -1.664
    1LIG    C15   25  -1.948   0.250  -1.585
    1LIG    C16   26  -1.993   0.287  -1.444
    1LIG    C17   27  -1.889   0.367  -1.368
    1LIG    C18   28  -1.834   0.486  -1.449
    1LIG    C19   29  -1.656   0.366  -1.598
    1LIG    C20   30  -1.555   0.383  -1.500
    1LIG    C21   31  -1.438   0.305  -1.500
    1LIG    C22   32  -1.415   0.216  -1.606
    1LIG    C23   33  -1.511   0.198  -1.704
    1LIG    C24   34  -1.632   0.269  -1.697
    1LIG    C25   35  -1.337   0.312  -1.387
    1LIG    C26   36  -1.226   0.204  -1.397
    1LIG    C27   37  -1.087   0.261  -1.366
    1LIG    C28   38  -1.257   0.089  -1.301
    1LIG    HC2   39  -1.916   0.691  -1.563
    1LIG    HC3   40  -1.897   0.734  -1.735
    1LIG     HC   41  -1.796   0.914  -1.628
    1LIG    HC1   42  -1.610   0.737  -1.753
    1LIG    HC4   43  -1.499   1.081  -2.047
    1LIG    HC5   44  -1.452   1.133  -1.884
    1LIG    HC6   45  -1.622   1.146  -1.936
    1LIG    HC7   46  -1.437   0.903  -1.585
    1LIG    HC8   47  -1.527   0.788  -1.486
    1LIG    HC9   48  -1.262   0.736  -1.452
    1LIG   HC10   49  -1.122   0.430  -1.719
    1LIG   HC11   50  -1.494   0.629  -1.796
    1LIG   HC12   51  -1.870   0.343  -1.763
    1LIG   HC13   52  -1.988   0.442  -1.674
    1LIG   HC14   53  -2.031   0.203  -1.637
    1LIG   HC15   54  -1.865   0.180  -1.579
    1LIG   HC16   55  -2.013   0.195  -1.389
    1LIG   HC17   56  -2.085   0.345  -1.450
    1LIG   HC18   57  -1.934   0.406  -1.276
    1LIG   HC19   58  -1.806   0.302  -1.341
    1LIG   HC20   59  -1.750   0.528  -1.395
    1LIG   HC21   60  -1.912   0.562  -1.456
    1LIG   HC22   61  -1.569   0.457  -1.423
    1LIG   HC23   62  -1.322   0.161  -1.611
    1LIG   HC24   63  -1.493   0.130  -1.785
    1LIG   HC25   64  -1.709   0.249  -1.770
    1LIG   HC26   65  -1.290   0.410  -1.389
    1LIG   HC27   66  -1.390   0.299  -1.293
    1LIG   HC28   67  -1.226   0.165  -1.498
    1LIG   HC29   68  -1.065   0.343  -1.434
    1LIG   HC30   69  -1.084   0.297  -1.264
    1LIG   HC31   70  -1.013   0.182  -1.379
    1LIG   HC32   71  -1.356   0.049  -1.323
    1LIG   HC33   72  -1.183   0.010  -1.314
    1LIG   HC34   73  -1.254   0.125  -1.198
   0.00000   0.00000   0.00000
