; Created by cgenff_charmm2gmx.py

[ moleculetype ]
; Name			   nrexcl
LIG				 3

[ atoms ]
;	 nr		  type	resnr residue  atom   cgnr	   charge		mass  typeB    chargeB		massB
; residue	 1 LIG rtp LIG q	qsum
     1      CG324      1    LIG     C1      1      0.208     12.011   ;
     2      CG311      1    LIG     C2      2      0.089     12.011   ;
     3      OG311      1    LIG     O1      3     -0.625     15.999   ;
     4       HGP1      1    LIG     H1      4      0.415      1.008   ;
     5      CG311      1    LIG     C3      5     -0.007     12.011   ;
     6      NG2S1      1    LIG     N1      6     -0.339     14.007   ;
     7      CG2O1      1    LIG     C4      7      0.488     12.011   ;
     8      OG2D1      1    LIG     O2      8     -0.509     15.999   ;
     9      CG331      1    LIG     C5      9     -0.270     12.011   ;
    10       HGP1      1    LIG     H2     10      0.261      1.008   ;
    11      CG321      1    LIG     C6     11     -0.153     12.011   ;
    12     CG2R61      1    LIG     C7     12      0.057     12.011   ;
    13     CG2R61      1    LIG     C8     13     -0.218     12.011   ;
    14     CG2R66      1    LIG     C9     14      0.261     12.011   ;
    15       FGR1      1    LIG     F1     15     -0.210     18.998   ;
    16     CG2R61      1    LIG    C10     16     -0.240     12.011   ;
    17     CG2R66      1    LIG    C11     17      0.261     12.011   ;
    18     CG2R61      1    LIG    C12     18     -0.218     12.011   ;
    19       FGR1      1    LIG     F2     19     -0.210     18.998   ;
    20      NG3P2      1    LIG     N2     20     -0.450     14.007   ;
    21       HGP2      1    LIG     H3     21      0.341      1.008   ;
    22       HGP2      1    LIG     H4     22      0.341      1.008   ;
    23      CG301      1    LIG    C13     23      0.295     12.011   ;
    24      CG321      1    LIG    C14     24     -0.147     12.011   ;
    25      CG321      1    LIG    C15     25     -0.202     12.011   ;
    26      CG321      1    LIG    C16     26     -0.176     12.011   ;
    27      CG321      1    LIG    C17     27     -0.202     12.011   ;
    28      CG321      1    LIG    C18     28     -0.147     12.011   ;
    29     CG2R61      1    LIG    C19     29      0.086     12.011   ;
    30     CG2R61      1    LIG    C20     30     -0.136     12.011   ;
    31     CG2R61      1    LIG    C21     31     -0.042     12.011   ;
    32     CG2R61      1    LIG    C22     32     -0.123     12.011   ;
    33     CG2R61      1    LIG    C23     33     -0.109     12.011   ;
    34     CG2R61      1    LIG    C24     34     -0.129     12.011   ;
    35      CG321      1    LIG    C25     35     -0.146     12.011   ;
    36      CG311      1    LIG    C26     36     -0.119     12.011   ;
    37      CG331      1    LIG    C27     37     -0.247     12.011   ;
    38      CG331      1    LIG    C28     38     -0.247     12.011   ;
    39       HGA2      1    LIG    HC2     39      0.090      1.008   ;
    40       HGA2      1    LIG    HC3     40      0.090      1.008   ;
    41       HGA1      1    LIG     HC     41      0.090      1.008   ;
    42       HGA1      1    LIG    HC1     42      0.090      1.008   ;
    43       HGA3      1    LIG    HC4     43      0.090      1.008   ;
    44       HGA3      1    LIG    HC5     44      0.090      1.008   ;
    45       HGA3      1    LIG    HC6     45      0.090      1.008   ;
    46       HGA2      1    LIG    HC7     46      0.090      1.008   ;
    47       HGA2      1    LIG    HC8     47      0.090      1.008   ;
    48      HGR62      1    LIG    HC9     48      0.174      1.008   ;
    49      HGR62      1    LIG   HC10     49      0.186      1.008   ;
    50      HGR62      1    LIG   HC11     50      0.174      1.008   ;
    51       HGA2      1    LIG   HC12     51      0.090      1.008   ;
    52       HGA2      1    LIG   HC13     52      0.090      1.008   ;
    53       HGA2      1    LIG   HC14     53      0.090      1.008   ;
    54       HGA2      1    LIG   HC15     54      0.090      1.008   ;
    55       HGA2      1    LIG   HC16     55      0.090      1.008   ;
    56       HGA2      1    LIG   HC17     56      0.090      1.008   ;
    57       HGA2      1    LIG   HC18     57      0.090      1.008   ;
    58       HGA2      1    LIG   HC19     58      0.090      1.008   ;
    59       HGA2      1    LIG   HC20     59      0.090      1.008   ;
    60       HGA2      1    LIG   HC21     60      0.090      1.008   ;
    61      HGR61      1    LIG   HC22     61      0.116      1.008   ;
    62      HGR61      1    LIG   HC23     62      0.116      1.008   ;
    63      HGR61      1    LIG   HC24     63      0.116      1.008   ;
    64      HGR61      1    LIG   HC25     64      0.116      1.008   ;
    65       HGA2      1    LIG   HC26     65      0.090      1.008   ;
    66       HGA2      1    LIG   HC27     66      0.090      1.008   ;
    67       HGA1      1    LIG   HC28     67      0.090      1.008   ;
    68       HGA3      1    LIG   HC29     68      0.090      1.008   ;
    69       HGA3      1    LIG   HC30     69      0.090      1.008   ;
    70       HGA3      1    LIG   HC31     70      0.090      1.008   ;
    71       HGA3      1    LIG   HC32     71      0.090      1.008   ;
    72       HGA3      1    LIG   HC33     72      0.090      1.008   ;
    73       HGA3      1    LIG   HC34     73      0.090      1.008   ;

[ bonds ]
;	ai	  aj funct			  c0			c1			  c2			c3
    1     2	 1 ;       CG324      CG311
    1    20	 1 ;       CG324      NG3P2
    1    39	 1 ;       CG324       HGA2
    1    40	 1 ;       CG324       HGA2
    2     5	 1 ;       CG311      CG311
    2     3	 1 ;       CG311      OG311
    2    41	 1 ;       CG311       HGA1
    3     4	 1 ;       OG311       HGP1
    5     6	 1 ;       CG311      NG2S1
    5    11	 1 ;       CG311      CG321
    5    42	 1 ;       CG311       HGA1
    6     7	 1 ;       NG2S1      CG2O1
    6    10	 1 ;       NG2S1       HGP1
    7     9	 1 ;       CG2O1      CG331
    7     8	 1 ;       CG2O1      OG2D1
    9    43	 1 ;       CG331       HGA3
    9    44	 1 ;       CG331       HGA3
    9    45	 1 ;       CG331       HGA3
   11    12	 1 ;       CG321     CG2R61
   11    46	 1 ;       CG321       HGA2
   11    47	 1 ;       CG321       HGA2
   12    13	 1 ;      CG2R61     CG2R61
   12    18	 1 ;      CG2R61     CG2R61
   13    14	 1 ;      CG2R61     CG2R66
   13    48	 1 ;      CG2R61      HGR62
   14    15	 1 ;      CG2R66       FGR1
   14    16	 1 ;      CG2R66     CG2R61
   16    17	 1 ;      CG2R61     CG2R66
   16    49	 1 ;      CG2R61      HGR62
   17    19	 1 ;      CG2R66       FGR1
   17    18	 1 ;      CG2R66     CG2R61
   18    50	 1 ;      CG2R61      HGR62
   20    22	 1 ;       NG3P2       HGP2
   20    21	 1 ;       NG3P2       HGP2
   20    23	 1 ;       NG3P2      CG301
   23    29	 1 ;       CG301     CG2R61
   23    24	 1 ;       CG301      CG321
   23    28	 1 ;       CG301      CG321
   24    25	 1 ;       CG321      CG321
   24    51	 1 ;       CG321       HGA2
   24    52	 1 ;       CG321       HGA2
   25    26	 1 ;       CG321      CG321
   25    53	 1 ;       CG321       HGA2
   25    54	 1 ;       CG321       HGA2
   26    27	 1 ;       CG321      CG321
   26    55	 1 ;       CG321       HGA2
   26    56	 1 ;       CG321       HGA2
   27    28	 1 ;       CG321      CG321
   27    57	 1 ;       CG321       HGA2
   27    58	 1 ;       CG321       HGA2
   28    59	 1 ;       CG321       HGA2
   28    60	 1 ;       CG321       HGA2
   29    34	 1 ;      CG2R61     CG2R61
   29    30	 1 ;      CG2R61     CG2R61
   30    31	 1 ;      CG2R61     CG2R61
   30    61	 1 ;      CG2R61      HGR61
   31    32	 1 ;      CG2R61     CG2R61
   31    35	 1 ;      CG2R61      CG321
   32    33	 1 ;      CG2R61     CG2R61
   32    62	 1 ;      CG2R61      HGR61
   33    34	 1 ;      CG2R61     CG2R61
   33    63	 1 ;      CG2R61      HGR61
   34    64	 1 ;      CG2R61      HGR61
   35    36	 1 ;       CG321      CG311
   35    65	 1 ;       CG321       HGA2
   35    66	 1 ;       CG321       HGA2
   36    37	 1 ;       CG311      CG331
   36    38	 1 ;       CG311      CG331
   36    67	 1 ;       CG311       HGA1
   37    68	 1 ;       CG331       HGA3
   37    69	 1 ;       CG331       HGA3
   37    70	 1 ;       CG331       HGA3
   38    71	 1 ;       CG331       HGA3
   38    72	 1 ;       CG331       HGA3
   38    73	 1 ;       CG331       HGA3

[ pairs ]
;	ai	  aj funct			  c0			c1			  c2			c3
    1     6	 1
    1    11	 1
    1    42	 1
    1     4	 1
    1    29	 1
    1    24	 1
    1    28	 1
    2    22	 1
    2    21	 1
    2    23	 1
    2     7	 1
    2    10	 1
    2    12	 1
    2    46	 1
    2    47	 1
    3    20	 1
    3    39	 1
    3    40	 1
    3     6	 1
    3    11	 1
    3    42	 1
    4     5	 1
    4    41	 1
    5    20	 1
    5    39	 1
    5    40	 1
    5     9	 1
    5     8	 1
    5    13	 1
    5    18	 1
    6    41	 1
    6    12	 1
    6    46	 1
    6    47	 1
    6    43	 1
    6    44	 1
    6    45	 1
    7    11	 1
    7    42	 1
    8    10	 1
    8    43	 1
    8    44	 1
    8    45	 1
    9    10	 1
   10    11	 1
   10    42	 1
   11    41	 1
   11    14	 1
   11    48	 1
   11    17	 1
   11    50	 1
   12    42	 1
   12    15	 1
   12    16	 1
   12    19	 1
   13    46	 1
   13    47	 1
   13    17	 1
   13    50	 1
   13    49	 1
   14    18	 1
   14    19	 1
   15    48	 1
   15    17	 1
   15    49	 1
   16    48	 1
   16    50	 1
   18    46	 1
   18    47	 1
   18    48	 1
   18    49	 1
   19    49	 1
   19    50	 1
   20    41	 1
   20    34	 1
   20    30	 1
   20    25	 1
   20    51	 1
   20    52	 1
   20    27	 1
   20    59	 1
   20    60	 1
   21    39	 1
   21    40	 1
   21    29	 1
   21    24	 1
   21    28	 1
   22    39	 1
   22    40	 1
   22    29	 1
   22    24	 1
   22    28	 1
   23    39	 1
   23    40	 1
   23    26	 1
   23    53	 1
   23    54	 1
   23    57	 1
   23    58	 1
   23    33	 1
   23    64	 1
   23    31	 1
   23    61	 1
   24    34	 1
   24    30	 1
   24    27	 1
   24    59	 1
   24    60	 1
   24    55	 1
   24    56	 1
   25    29	 1
   25    28	 1
   25    57	 1
   25    58	 1
   26    51	 1
   26    52	 1
   26    59	 1
   26    60	 1
   27    29	 1
   27    53	 1
   27    54	 1
   28    34	 1
   28    30	 1
   28    51	 1
   28    52	 1
   28    55	 1
   28    56	 1
   29    51	 1
   29    52	 1
   29    59	 1
   29    60	 1
   29    32	 1
   29    35	 1
   29    63	 1
   30    33	 1
   30    64	 1
   30    62	 1
   30    36	 1
   30    65	 1
   30    66	 1
   31    34	 1
   31    63	 1
   31    37	 1
   31    38	 1
   31    67	 1
   32    61	 1
   32    36	 1
   32    65	 1
   32    66	 1
   32    64	 1
   33    35	 1
   34    61	 1
   34    62	 1
   35    61	 1
   35    62	 1
   35    68	 1
   35    69	 1
   35    70	 1
   35    71	 1
   35    72	 1
   35    73	 1
   37    65	 1
   37    66	 1
   37    71	 1
   37    72	 1
   37    73	 1
   38    65	 1
   38    66	 1
   38    68	 1
   38    69	 1
   38    70	 1
   39    41	 1
   40    41	 1
   41    42	 1
   42    46	 1
   42    47	 1
   51    53	 1
   51    54	 1
   52    53	 1
   52    54	 1
   53    55	 1
   53    56	 1
   54    55	 1
   54    56	 1
   55    57	 1
   55    58	 1
   56    57	 1
   56    58	 1
   57    59	 1
   57    60	 1
   58    59	 1
   58    60	 1
   62    63	 1
   63    64	 1
   65    67	 1
   66    67	 1
   67    68	 1
   67    69	 1
   67    70	 1
   67    71	 1
   67    72	 1
   67    73	 1

[ angles ]
;	ai	  aj	ak funct			c0			  c1			c2			  c3
    2     1    20	5 ;      CG311      CG324      NG3P2
    2     1    39	5 ;      CG311      CG324       HGA2
    2     1    40	5 ;      CG311      CG324       HGA2
   20     1    39	5 ;      NG3P2      CG324       HGA2
   20     1    40	5 ;      NG3P2      CG324       HGA2
   39     1    40	5 ;       HGA2      CG324       HGA2
    5     2     3	5 ;      CG311      CG311      OG311
    5     2     1	5 ;      CG311      CG311      CG324
    5     2    41	5 ;      CG311      CG311       HGA1
    3     2     1	5 ;      OG311      CG311      CG324
    3     2    41	5 ;      OG311      CG311       HGA1
    1     2    41	5 ;      CG324      CG311       HGA1
    2     3     4	5 ;      CG311      OG311       HGP1
    6     5    11	5 ;      NG2S1      CG311      CG321
    6     5     2	5 ;      NG2S1      CG311      CG311
    6     5    42	5 ;      NG2S1      CG311       HGA1
   11     5     2	5 ;      CG321      CG311      CG311
   11     5    42	5 ;      CG321      CG311       HGA1
    2     5    42	5 ;      CG311      CG311       HGA1
    7     6    10	5 ;      CG2O1      NG2S1       HGP1
    7     6     5	5 ;      CG2O1      NG2S1      CG311
   10     6     5	5 ;       HGP1      NG2S1      CG311
    9     7     8	5 ;      CG331      CG2O1      OG2D1
    9     7     6	5 ;      CG331      CG2O1      NG2S1
    8     7     6	5 ;      OG2D1      CG2O1      NG2S1
    7     9    43	5 ;      CG2O1      CG331       HGA3
    7     9    44	5 ;      CG2O1      CG331       HGA3
    7     9    45	5 ;      CG2O1      CG331       HGA3
   43     9    44	5 ;       HGA3      CG331       HGA3
   43     9    45	5 ;       HGA3      CG331       HGA3
   44     9    45	5 ;       HGA3      CG331       HGA3
   12    11     5	5 ;     CG2R61      CG321      CG311
   12    11    46	5 ;     CG2R61      CG321       HGA2
   12    11    47	5 ;     CG2R61      CG321       HGA2
    5    11    46	5 ;      CG311      CG321       HGA2
    5    11    47	5 ;      CG311      CG321       HGA2
   46    11    47	5 ;       HGA2      CG321       HGA2
   13    12    18	5 ;     CG2R61     CG2R61     CG2R61
   13    12    11	5 ;     CG2R61     CG2R61      CG321
   18    12    11	5 ;     CG2R61     CG2R61      CG321
   14    13    12	5 ;     CG2R66     CG2R61     CG2R61
   14    13    48	5 ;     CG2R66     CG2R61      HGR62
   12    13    48	5 ;     CG2R61     CG2R61      HGR62
   15    14    16	5 ;       FGR1     CG2R66     CG2R61
   15    14    13	5 ;       FGR1     CG2R66     CG2R61
   16    14    13	5 ;     CG2R61     CG2R66     CG2R61
   14    16    17	5 ;     CG2R66     CG2R61     CG2R66
   14    16    49	5 ;     CG2R66     CG2R61      HGR62
   17    16    49	5 ;     CG2R66     CG2R61      HGR62
   16    17    19	5 ;     CG2R61     CG2R66       FGR1
   16    17    18	5 ;     CG2R61     CG2R66     CG2R61
   19    17    18	5 ;       FGR1     CG2R66     CG2R61
   17    18    12	5 ;     CG2R66     CG2R61     CG2R61
   17    18    50	5 ;     CG2R66     CG2R61      HGR62
   12    18    50	5 ;     CG2R61     CG2R61      HGR62
   22    20    21	5 ;       HGP2      NG3P2       HGP2
   22    20     1	5 ;       HGP2      NG3P2      CG324
   22    20    23	5 ;       HGP2      NG3P2      CG301
   21    20     1	5 ;       HGP2      NG3P2      CG324
   21    20    23	5 ;       HGP2      NG3P2      CG301
    1    20    23	5 ;      CG324      NG3P2      CG301
   29    23    20	5 ;     CG2R61      CG301      NG3P2
   29    23    24	5 ;     CG2R61      CG301      CG321
   29    23    28	5 ;     CG2R61      CG301      CG321
   20    23    24	5 ;      NG3P2      CG301      CG321
   20    23    28	5 ;      NG3P2      CG301      CG321
   24    23    28	5 ;      CG321      CG301      CG321
   23    24    25	5 ;      CG301      CG321      CG321
   23    24    51	5 ;      CG301      CG321       HGA2
   23    24    52	5 ;      CG301      CG321       HGA2
   25    24    51	5 ;      CG321      CG321       HGA2
   25    24    52	5 ;      CG321      CG321       HGA2
   51    24    52	5 ;       HGA2      CG321       HGA2
   24    25    26	5 ;      CG321      CG321      CG321
   24    25    53	5 ;      CG321      CG321       HGA2
   24    25    54	5 ;      CG321      CG321       HGA2
   26    25    53	5 ;      CG321      CG321       HGA2
   26    25    54	5 ;      CG321      CG321       HGA2
   53    25    54	5 ;       HGA2      CG321       HGA2
   25    26    27	5 ;      CG321      CG321      CG321
   25    26    55	5 ;      CG321      CG321       HGA2
   25    26    56	5 ;      CG321      CG321       HGA2
   27    26    55	5 ;      CG321      CG321       HGA2
   27    26    56	5 ;      CG321      CG321       HGA2
   55    26    56	5 ;       HGA2      CG321       HGA2
   28    27    26	5 ;      CG321      CG321      CG321
   28    27    57	5 ;      CG321      CG321       HGA2
   28    27    58	5 ;      CG321      CG321       HGA2
   26    27    57	5 ;      CG321      CG321       HGA2
   26    27    58	5 ;      CG321      CG321       HGA2
   57    27    58	5 ;       HGA2      CG321       HGA2
   23    28    27	5 ;      CG301      CG321      CG321
   23    28    59	5 ;      CG301      CG321       HGA2
   23    28    60	5 ;      CG301      CG321       HGA2
   27    28    59	5 ;      CG321      CG321       HGA2
   27    28    60	5 ;      CG321      CG321       HGA2
   59    28    60	5 ;       HGA2      CG321       HGA2
   34    29    30	5 ;     CG2R61     CG2R61     CG2R61
   34    29    23	5 ;     CG2R61     CG2R61      CG301
   30    29    23	5 ;     CG2R61     CG2R61      CG301
   31    30    29	5 ;     CG2R61     CG2R61     CG2R61
   31    30    61	5 ;     CG2R61     CG2R61      HGR61
   29    30    61	5 ;     CG2R61     CG2R61      HGR61
   32    31    35	5 ;     CG2R61     CG2R61      CG321
   32    31    30	5 ;     CG2R61     CG2R61     CG2R61
   35    31    30	5 ;      CG321     CG2R61     CG2R61
   33    32    31	5 ;     CG2R61     CG2R61     CG2R61
   33    32    62	5 ;     CG2R61     CG2R61      HGR61
   31    32    62	5 ;     CG2R61     CG2R61      HGR61
   32    33    34	5 ;     CG2R61     CG2R61     CG2R61
   32    33    63	5 ;     CG2R61     CG2R61      HGR61
   34    33    63	5 ;     CG2R61     CG2R61      HGR61
   33    34    29	5 ;     CG2R61     CG2R61     CG2R61
   33    34    64	5 ;     CG2R61     CG2R61      HGR61
   29    34    64	5 ;     CG2R61     CG2R61      HGR61
   36    35    31	5 ;      CG311      CG321     CG2R61
   36    35    65	5 ;      CG311      CG321       HGA2
   36    35    66	5 ;      CG311      CG321       HGA2
   31    35    65	5 ;     CG2R61      CG321       HGA2
   31    35    66	5 ;     CG2R61      CG321       HGA2
   65    35    66	5 ;       HGA2      CG321       HGA2
   37    36    35	5 ;      CG331      CG311      CG321
   37    36    38	5 ;      CG331      CG311      CG331
   37    36    67	5 ;      CG331      CG311       HGA1
   35    36    38	5 ;      CG321      CG311      CG331
   35    36    67	5 ;      CG321      CG311       HGA1
   38    36    67	5 ;      CG331      CG311       HGA1
   36    37    68	5 ;      CG311      CG331       HGA3
   36    37    69	5 ;      CG311      CG331       HGA3
   36    37    70	5 ;      CG311      CG331       HGA3
   68    37    69	5 ;       HGA3      CG331       HGA3
   68    37    70	5 ;       HGA3      CG331       HGA3
   69    37    70	5 ;       HGA3      CG331       HGA3
   36    38    71	5 ;      CG311      CG331       HGA3
   36    38    72	5 ;      CG311      CG331       HGA3
   36    38    73	5 ;      CG311      CG331       HGA3
   71    38    72	5 ;       HGA3      CG331       HGA3
   71    38    73	5 ;       HGA3      CG331       HGA3
   72    38    73	5 ;       HGA3      CG331       HGA3

[ dihedrals ]
;	ai	  aj	ak	  al funct			  c0			c1			  c2			c3			  c4			c5
   20     1     2     5	 9 ;      NG3P2      CG324      CG311      CG311
   20     1     2     3	 9 ;      NG3P2      CG324      CG311      OG311
   20     1     2    41	 9 ;      NG3P2      CG324      CG311       HGA1
   39     1     2     5	 9 ;       HGA2      CG324      CG311      CG311
   39     1     2     3	 9 ;       HGA2      CG324      CG311      OG311
   39     1     2    41	 9 ;       HGA2      CG324      CG311       HGA1
   40     1     2     5	 9 ;       HGA2      CG324      CG311      CG311
   40     1     2     3	 9 ;       HGA2      CG324      CG311      OG311
   40     1     2    41	 9 ;       HGA2      CG324      CG311       HGA1
    2     1    20    22	 9 ;      CG311      CG324      NG3P2       HGP2
    2     1    20    21	 9 ;      CG311      CG324      NG3P2       HGP2
    2     1    20    23	 9 ;      CG311      CG324      NG3P2      CG301
   39     1    20    22	 9 ;       HGA2      CG324      NG3P2       HGP2
   39     1    20    21	 9 ;       HGA2      CG324      NG3P2       HGP2
   39     1    20    23	 9 ;       HGA2      CG324      NG3P2      CG301
   40     1    20    22	 9 ;       HGA2      CG324      NG3P2       HGP2
   40     1    20    21	 9 ;       HGA2      CG324      NG3P2       HGP2
   40     1    20    23	 9 ;       HGA2      CG324      NG3P2      CG301
    3     2     5     6	 9 ;      OG311      CG311      CG311      NG2S1
    3     2     5    11	 9 ;      OG311      CG311      CG311      CG321
    3     2     5    42	 9 ;      OG311      CG311      CG311       HGA1
    1     2     5     6	 9 ;      CG324      CG311      CG311      NG2S1
    1     2     5    11	 9 ;      CG324      CG311      CG311      CG321
    1     2     5    42	 9 ;      CG324      CG311      CG311       HGA1
   41     2     5     6	 9 ;       HGA1      CG311      CG311      NG2S1
   41     2     5    11	 9 ;       HGA1      CG311      CG311      CG321
   41     2     5    42	 9 ;       HGA1      CG311      CG311       HGA1
    5     2     3     4	 9 ;      CG311      CG311      OG311       HGP1
    1     2     3     4	 9 ;      CG324      CG311      OG311       HGP1
   41     2     3     4	 9 ;       HGA1      CG311      OG311       HGP1
   11     5     6     7	 9 ;      CG321      CG311      NG2S1      CG2O1
   11     5     6    10	 9 ;      CG321      CG311      NG2S1       HGP1
    2     5     6     7	 9 ;      CG311      CG311      NG2S1      CG2O1
    2     5     6    10	 9 ;      CG311      CG311      NG2S1       HGP1
   42     5     6     7	 9 ;       HGA1      CG311      NG2S1      CG2O1
   42     5     6    10	 9 ;       HGA1      CG311      NG2S1       HGP1
    6     5    11    12	 9 ;      NG2S1      CG311      CG321     CG2R61
    6     5    11    46	 9 ;      NG2S1      CG311      CG321       HGA2
    6     5    11    47	 9 ;      NG2S1      CG311      CG321       HGA2
    2     5    11    12	 9 ;      CG311      CG311      CG321     CG2R61
    2     5    11    46	 9 ;      CG311      CG311      CG321       HGA2
    2     5    11    47	 9 ;      CG311      CG311      CG321       HGA2
   42     5    11    12	 9 ;       HGA1      CG311      CG321     CG2R61
   42     5    11    46	 9 ;       HGA1      CG311      CG321       HGA2
   42     5    11    47	 9 ;       HGA1      CG311      CG321       HGA2
   10     6     7     9	 9 ;       HGP1      NG2S1      CG2O1      CG331
   10     6     7     8	 9 ;       HGP1      NG2S1      CG2O1      OG2D1
    5     6     7     9	 9 ;      CG311      NG2S1      CG2O1      CG331
    5     6     7     8	 9 ;      CG311      NG2S1      CG2O1      OG2D1
    8     7     9    43	 9 ;      OG2D1      CG2O1      CG331       HGA3
    8     7     9    44	 9 ;      OG2D1      CG2O1      CG331       HGA3
    8     7     9    45	 9 ;      OG2D1      CG2O1      CG331       HGA3
    6     7     9    43	 9 ;      NG2S1      CG2O1      CG331       HGA3
    6     7     9    44	 9 ;      NG2S1      CG2O1      CG331       HGA3
    6     7     9    45	 9 ;      NG2S1      CG2O1      CG331       HGA3
    5    11    12    13	 9 ;      CG311      CG321     CG2R61     CG2R61
    5    11    12    18	 9 ;      CG311      CG321     CG2R61     CG2R61
   46    11    12    13	 9 ;       HGA2      CG321     CG2R61     CG2R61
   46    11    12    18	 9 ;       HGA2      CG321     CG2R61     CG2R61
   47    11    12    13	 9 ;       HGA2      CG321     CG2R61     CG2R61
   47    11    12    18	 9 ;       HGA2      CG321     CG2R61     CG2R61
   18    12    13    14	 9 ;     CG2R61     CG2R61     CG2R61     CG2R66
   18    12    13    48	 9 ;     CG2R61     CG2R61     CG2R61      HGR62
   11    12    13    14	 9 ;      CG321     CG2R61     CG2R61     CG2R66
   11    12    13    48	 9 ;      CG321     CG2R61     CG2R61      HGR62
   13    12    18    17	 9 ;     CG2R61     CG2R61     CG2R61     CG2R66
   13    12    18    50	 9 ;     CG2R61     CG2R61     CG2R61      HGR62
   11    12    18    17	 9 ;      CG321     CG2R61     CG2R61     CG2R66
   11    12    18    50	 9 ;      CG321     CG2R61     CG2R61      HGR62
   12    13    14    15	 9 ;     CG2R61     CG2R61     CG2R66       FGR1
   12    13    14    16	 9 ;     CG2R61     CG2R61     CG2R66     CG2R61
   48    13    14    15	 9 ;      HGR62     CG2R61     CG2R66       FGR1
   48    13    14    16	 9 ;      HGR62     CG2R61     CG2R66     CG2R61
   15    14    16    17	 9 ;       FGR1     CG2R66     CG2R61     CG2R66
   15    14    16    49	 9 ;       FGR1     CG2R66     CG2R61      HGR62
   13    14    16    17	 9 ;     CG2R61     CG2R66     CG2R61     CG2R66
   13    14    16    49	 9 ;     CG2R61     CG2R66     CG2R61      HGR62
   14    16    17    19	 9 ;     CG2R66     CG2R61     CG2R66       FGR1
   14    16    17    18	 9 ;     CG2R66     CG2R61     CG2R66     CG2R61
   49    16    17    19	 9 ;      HGR62     CG2R61     CG2R66       FGR1
   49    16    17    18	 9 ;      HGR62     CG2R61     CG2R66     CG2R61
   16    17    18    12	 9 ;     CG2R61     CG2R66     CG2R61     CG2R61
   16    17    18    50	 9 ;     CG2R61     CG2R66     CG2R61      HGR62
   19    17    18    12	 9 ;       FGR1     CG2R66     CG2R61     CG2R61
   19    17    18    50	 9 ;       FGR1     CG2R66     CG2R61      HGR62
   22    20    23    29	 9 ;       HGP2      NG3P2      CG301     CG2R61
   22    20    23    24	 9 ;       HGP2      NG3P2      CG301      CG321
   22    20    23    28	 9 ;       HGP2      NG3P2      CG301      CG321
   21    20    23    29	 9 ;       HGP2      NG3P2      CG301     CG2R61
   21    20    23    24	 9 ;       HGP2      NG3P2      CG301      CG321
   21    20    23    28	 9 ;       HGP2      NG3P2      CG301      CG321
    1    20    23    29	 9 ;      CG324      NG3P2      CG301     CG2R61
    1    20    23    24	 9 ;      CG324      NG3P2      CG301      CG321
    1    20    23    28	 9 ;      CG324      NG3P2      CG301      CG321
   20    23    29    34	 9 ;      NG3P2      CG301     CG2R61     CG2R61
   20    23    29    30	 9 ;      NG3P2      CG301     CG2R61     CG2R61
   24    23    29    34	 9 ;      CG321      CG301     CG2R61     CG2R61
   24    23    29    30	 9 ;      CG321      CG301     CG2R61     CG2R61
   28    23    29    34	 9 ;      CG321      CG301     CG2R61     CG2R61
   28    23    29    30	 9 ;      CG321      CG301     CG2R61     CG2R61
   29    23    24    25	 9 ;     CG2R61      CG301      CG321      CG321
   29    23    24    51	 9 ;     CG2R61      CG301      CG321       HGA2
   29    23    24    52	 9 ;     CG2R61      CG301      CG321       HGA2
   20    23    24    25	 9 ;      NG3P2      CG301      CG321      CG321
   20    23    24    51	 9 ;      NG3P2      CG301      CG321       HGA2
   20    23    24    52	 9 ;      NG3P2      CG301      CG321       HGA2
   28    23    24    25	 9 ;      CG321      CG301      CG321      CG321
   28    23    24    51	 9 ;      CG321      CG301      CG321       HGA2
   28    23    24    52	 9 ;      CG321      CG301      CG321       HGA2
   29    23    28    27	 9 ;     CG2R61      CG301      CG321      CG321
   29    23    28    59	 9 ;     CG2R61      CG301      CG321       HGA2
   29    23    28    60	 9 ;     CG2R61      CG301      CG321       HGA2
   20    23    28    27	 9 ;      NG3P2      CG301      CG321      CG321
   20    23    28    59	 9 ;      NG3P2      CG301      CG321       HGA2
   20    23    28    60	 9 ;      NG3P2      CG301      CG321       HGA2
   24    23    28    27	 9 ;      CG321      CG301      CG321      CG321
   24    23    28    59	 9 ;      CG321      CG301      CG321       HGA2
   24    23    28    60	 9 ;      CG321      CG301      CG321       HGA2
   23    24    25    26	 9 ;      CG301      CG321      CG321      CG321
   23    24    25    53	 9 ;      CG301      CG321      CG321       HGA2
   23    24    25    54	 9 ;      CG301      CG321      CG321       HGA2
   51    24    25    26	 9 ;       HGA2      CG321      CG321      CG321
   51    24    25    53	 9 ;       HGA2      CG321      CG321       HGA2
   51    24    25    54	 9 ;       HGA2      CG321      CG321       HGA2
   52    24    25    26	 9 ;       HGA2      CG321      CG321      CG321
   52    24    25    53	 9 ;       HGA2      CG321      CG321       HGA2
   52    24    25    54	 9 ;       HGA2      CG321      CG321       HGA2
   24    25    26    27	 9 ;      CG321      CG321      CG321      CG321
   24    25    26    55	 9 ;      CG321      CG321      CG321       HGA2
   24    25    26    56	 9 ;      CG321      CG321      CG321       HGA2
   53    25    26    27	 9 ;       HGA2      CG321      CG321      CG321
   53    25    26    55	 9 ;       HGA2      CG321      CG321       HGA2
   53    25    26    56	 9 ;       HGA2      CG321      CG321       HGA2
   54    25    26    27	 9 ;       HGA2      CG321      CG321      CG321
   54    25    26    55	 9 ;       HGA2      CG321      CG321       HGA2
   54    25    26    56	 9 ;       HGA2      CG321      CG321       HGA2
   25    26    27    28	 9 ;      CG321      CG321      CG321      CG321
   25    26    27    57	 9 ;      CG321      CG321      CG321       HGA2
   25    26    27    58	 9 ;      CG321      CG321      CG321       HGA2
   55    26    27    28	 9 ;       HGA2      CG321      CG321      CG321
   55    26    27    57	 9 ;       HGA2      CG321      CG321       HGA2
   55    26    27    58	 9 ;       HGA2      CG321      CG321       HGA2
   56    26    27    28	 9 ;       HGA2      CG321      CG321      CG321
   56    26    27    57	 9 ;       HGA2      CG321      CG321       HGA2
   56    26    27    58	 9 ;       HGA2      CG321      CG321       HGA2
   26    27    28    23	 9 ;      CG321      CG321      CG321      CG301
   26    27    28    59	 9 ;      CG321      CG321      CG321       HGA2
   26    27    28    60	 9 ;      CG321      CG321      CG321       HGA2
   57    27    28    23	 9 ;       HGA2      CG321      CG321      CG301
   57    27    28    59	 9 ;       HGA2      CG321      CG321       HGA2
   57    27    28    60	 9 ;       HGA2      CG321      CG321       HGA2
   58    27    28    23	 9 ;       HGA2      CG321      CG321      CG301
   58    27    28    59	 9 ;       HGA2      CG321      CG321       HGA2
   58    27    28    60	 9 ;       HGA2      CG321      CG321       HGA2
   30    29    34    33	 9 ;     CG2R61     CG2R61     CG2R61     CG2R61
   30    29    34    64	 9 ;     CG2R61     CG2R61     CG2R61      HGR61
   23    29    34    33	 9 ;      CG301     CG2R61     CG2R61     CG2R61
   23    29    34    64	 9 ;      CG301     CG2R61     CG2R61      HGR61
   34    29    30    31	 9 ;     CG2R61     CG2R61     CG2R61     CG2R61
   34    29    30    61	 9 ;     CG2R61     CG2R61     CG2R61      HGR61
   23    29    30    31	 9 ;      CG301     CG2R61     CG2R61     CG2R61
   23    29    30    61	 9 ;      CG301     CG2R61     CG2R61      HGR61
   29    30    31    32	 9 ;     CG2R61     CG2R61     CG2R61     CG2R61
   29    30    31    35	 9 ;     CG2R61     CG2R61     CG2R61      CG321
   61    30    31    32	 9 ;      HGR61     CG2R61     CG2R61     CG2R61
   61    30    31    35	 9 ;      HGR61     CG2R61     CG2R61      CG321
   35    31    32    33	 9 ;      CG321     CG2R61     CG2R61     CG2R61
   35    31    32    62	 9 ;      CG321     CG2R61     CG2R61      HGR61
   30    31    32    33	 9 ;     CG2R61     CG2R61     CG2R61     CG2R61
   30    31    32    62	 9 ;     CG2R61     CG2R61     CG2R61      HGR61
   32    31    35    36	 9 ;     CG2R61     CG2R61      CG321      CG311
   32    31    35    65	 9 ;     CG2R61     CG2R61      CG321       HGA2
   32    31    35    66	 9 ;     CG2R61     CG2R61      CG321       HGA2
   30    31    35    36	 9 ;     CG2R61     CG2R61      CG321      CG311
   30    31    35    65	 9 ;     CG2R61     CG2R61      CG321       HGA2
   30    31    35    66	 9 ;     CG2R61     CG2R61      CG321       HGA2
   31    32    33    34	 9 ;     CG2R61     CG2R61     CG2R61     CG2R61
   31    32    33    63	 9 ;     CG2R61     CG2R61     CG2R61      HGR61
   62    32    33    34	 9 ;      HGR61     CG2R61     CG2R61     CG2R61
   62    32    33    63	 9 ;      HGR61     CG2R61     CG2R61      HGR61
   32    33    34    29	 9 ;     CG2R61     CG2R61     CG2R61     CG2R61
   32    33    34    64	 9 ;     CG2R61     CG2R61     CG2R61      HGR61
   63    33    34    29	 9 ;      HGR61     CG2R61     CG2R61     CG2R61
   63    33    34    64	 9 ;      HGR61     CG2R61     CG2R61      HGR61
   31    35    36    37	 9 ;     CG2R61      CG321      CG311      CG331
   31    35    36    38	 9 ;     CG2R61      CG321      CG311      CG331
   31    35    36    67	 9 ;     CG2R61      CG321      CG311       HGA1
   65    35    36    37	 9 ;       HGA2      CG321      CG311      CG331
   65    35    36    38	 9 ;       HGA2      CG321      CG311      CG331
   65    35    36    67	 9 ;       HGA2      CG321      CG311       HGA1
   66    35    36    37	 9 ;       HGA2      CG321      CG311      CG331
   66    35    36    38	 9 ;       HGA2      CG321      CG311      CG331
   66    35    36    67	 9 ;       HGA2      CG321      CG311       HGA1
   35    36    37    68	 9 ;      CG321      CG311      CG331       HGA3
   35    36    37    69	 9 ;      CG321      CG311      CG331       HGA3
   35    36    37    70	 9 ;      CG321      CG311      CG331       HGA3
   38    36    37    68	 9 ;      CG331      CG311      CG331       HGA3
   38    36    37    69	 9 ;      CG331      CG311      CG331       HGA3
   38    36    37    70	 9 ;      CG331      CG311      CG331       HGA3
   67    36    37    68	 9 ;       HGA1      CG311      CG331       HGA3
   67    36    37    69	 9 ;       HGA1      CG311      CG331       HGA3
   67    36    37    70	 9 ;       HGA1      CG311      CG331       HGA3
   37    36    38    71	 9 ;      CG331      CG311      CG331       HGA3
   37    36    38    72	 9 ;      CG331      CG311      CG331       HGA3
   37    36    38    73	 9 ;      CG331      CG311      CG331       HGA3
   35    36    38    71	 9 ;      CG321      CG311      CG331       HGA3
   35    36    38    72	 9 ;      CG321      CG311      CG331       HGA3
   35    36    38    73	 9 ;      CG321      CG311      CG331       HGA3
   67    36    38    71	 9 ;       HGA1      CG311      CG331       HGA3
   67    36    38    72	 9 ;       HGA1      CG311      CG331       HGA3
   67    36    38    73	 9 ;       HGA1      CG311      CG331       HGA3

[ dihedrals ]
;	ai	  aj	ak	  al funct			  c0			c1			  c2			c3
    7     9     6     8	 2

