; Created by cgenff_charmm2gmx.py

[ moleculetype ]
; Name			   nrexcl
LIG				 3

[ atoms ]
;	 nr		  type	resnr residue  atom   cgnr	   charge		mass  typeB    chargeB		massB
; residue	 1 LIG rtp LIG q	qsum
     1     CG2R61      1    LIG     C1      1     -0.130     12.011   ;
     2     CG2R61      1    LIG     C2      2     -0.135     12.011   ;
     3     CG2R61      1    LIG     C3      3      0.149     12.011   ;
     4     CG2R61      1    LIG     C4      4     -0.119     12.011   ;
     5     CG2R61      1    LIG     C5      5     -0.102     12.011   ;
     6     CG2R61      1    LIG     C6      6     -0.132     12.011   ;
     7      NG2S1      1    LIG     N1      7     -0.504     14.007   ;
     8      CG2O1      1    LIG     C7      8      0.362     12.011   ;
     9      OG2D1      1    LIG      O      9     -0.480     15.999   ;
    10       HGP1      1    LIG     H1     10      0.329      1.008   ;
    11      CG311      1    LIG     C8     11      0.436     12.011   ;
    12      NG311      1    LIG     N2     12     -0.563     14.007   ;
    13     CG2D1O      1    LIG     C9     13     -0.077     12.011   ;
    14     HGPAM1      1    LIG    HN3     14      0.375      1.008   ;
    15     CG2DC1      1    LIG    C10     15     -0.242     12.011   ;
    16     CG2DC2      1    LIG    C11     16     -0.164     12.011   ;
    17     CG2DC2      1    LIG    C12     17     -0.316     12.011   ;
    18     CG3C50      1    LIG    C13     18      0.872     12.011   ;
    19     CG3C52      1    LIG    C14     19     -0.141     12.011   ;
    20      SG311      1    LIG      S     20     -0.135     32.060   ;
    21     CG3C53      1    LIG    C15     21      0.787     12.011   ;
    22      NG3P2      1    LIG     N3     22     -0.740     14.007   ;
    23       HGP2      1    LIG    HN4     23      0.317      1.008   ;
    24      CG331      1    LIG    C16     24     -0.301     12.011   ;
    25      NG3P3      1    LIG     N4     25     -0.328     14.007   ;
    26       HGP2      1    LIG     H2     26      0.307      1.008   ;
    27       HGP2      1    LIG     H3     27      0.307      1.008   ;
    28      HGR61      1    LIG     HC     28      0.116      1.008   ;
    29      HGR61      1    LIG    HC1     29      0.116      1.008   ;
    30      HGR61      1    LIG    HC2     30      0.116      1.008   ;
    31      HGR61      1    LIG    HC3     31      0.116      1.008   ;
    32       HGA4      1    LIG    HC4     32      0.162      1.008   ;
    33       HGA4      1    LIG    HC5     33      0.150      1.008   ;
    34       HGA4      1    LIG    HC6     34      0.150      1.008   ;
    35       HGA4      1    LIG    HC7     35      0.154      1.008   ;
    36       HGA2      1    LIG    HC8     36      0.090      1.008   ;
    37       HGA2      1    LIG    HC9     37      0.090      1.008   ;
    38       HGA1      1    LIG   HC10     38      0.124      1.008   ;
    39       HGP2      1    LIG    HN2     39      0.317      1.008   ;
    40       HGA3      1    LIG   HC11     40      0.090      1.008   ;
    41       HGA3      1    LIG   HC12     41      0.090      1.008   ;
    42       HGA3      1    LIG   HC13     42      0.090      1.008   ;
    43       HGP2      1    LIG    HN1     43      0.307      1.008   ;
    44       HGA1      1    LIG    H22     44      0.090      1.008   ;

[ bonds ]
;	ai	  aj funct			  c0			c1			  c2			c3
    1     6	 1 ;      CG2R61     CG2R61
    1     2	 1 ;      CG2R61     CG2R61
    1    18	 1 ;      CG2R61     CG3C50
    2     3	 1 ;      CG2R61     CG2R61
    2    28	 1 ;      CG2R61      HGR61
    3     4	 1 ;      CG2R61     CG2R61
    3     7	 1 ;      CG2R61      NG2S1
    4     5	 1 ;      CG2R61     CG2R61
    4    29	 1 ;      CG2R61      HGR61
    5     6	 1 ;      CG2R61     CG2R61
    5    30	 1 ;      CG2R61      HGR61
    6    31	 1 ;      CG2R61      HGR61
    7    10	 1 ;       NG2S1       HGP1
    7     8	 1 ;       NG2S1      CG2O1
    8    11	 1 ;       CG2O1      CG311
    8     9	 1 ;       CG2O1      OG2D1
   11    17	 1 ;       CG311     CG2DC2
   11    12	 1 ;       CG311      NG311
   11    44	 1 ;       CG311       HGA1
   12    13	 1 ;       NG311     CG2D1O
   12    14	 1 ;       NG311     HGPAM1
   13    15	 1 ;      CG2D1O     CG2DC1
   13    32	 1 ;      CG2D1O       HGA4
   15    16	 1 ;      CG2DC1     CG2DC2
   15    33	 1 ;      CG2DC1       HGA4
   16    17	 1 ;      CG2DC2     CG2DC2
   16    34	 1 ;      CG2DC2       HGA4
   17    35	 1 ;      CG2DC2       HGA4
   18    19	 1 ;      CG3C50     CG3C52
   18    24	 1 ;      CG3C50      CG331
   18    22	 1 ;      CG3C50      NG3P2
   19    20	 1 ;      CG3C52      SG311
   19    36	 1 ;      CG3C52       HGA2
   19    37	 1 ;      CG3C52       HGA2
   20    21	 1 ;       SG311     CG3C53
   21    22	 1 ;      CG3C53      NG3P2
   21    25	 1 ;      CG3C53      NG3P3
   21    38	 1 ;      CG3C53       HGA1
   22    23	 1 ;       NG3P2       HGP2
   22    39	 1 ;       NG3P2       HGP2
   24    40	 1 ;       CG331       HGA3
   24    41	 1 ;       CG331       HGA3
   24    42	 1 ;       CG331       HGA3
   25    26	 1 ;       NG3P3       HGP2
   25    27	 1 ;       NG3P3       HGP2
   25    43	 1 ;       NG3P3       HGP2

[ pairs ]
;	ai	  aj funct			  c0			c1			  c2			c3
    1     4	 1
    1     7	 1
    1    30	 1
    1    20	 1
    1    36	 1
    1    37	 1
    1    40	 1
    1    41	 1
    1    42	 1
    1    21	 1
    1    23	 1
    1    39	 1
    2     5	 1
    2    31	 1
    2    19	 1
    2    24	 1
    2    22	 1
    2    29	 1
    2    10	 1
    2     8	 1
    3     6	 1
    3    18	 1
    3    30	 1
    3    11	 1
    3     9	 1
    4    28	 1
    4    10	 1
    4     8	 1
    4    31	 1
    5    18	 1
    5     7	 1
    6    28	 1
    6    19	 1
    6    24	 1
    6    22	 1
    6    29	 1
    7    28	 1
    7    29	 1
    7    17	 1
    7    12	 1
    7    44	 1
    8    16	 1
    8    35	 1
    8    13	 1
    8    14	 1
    9    10	 1
    9    17	 1
    9    12	 1
    9    44	 1
   10    11	 1
   11    15	 1
   11    32	 1
   11    34	 1
   12    16	 1
   12    35	 1
   12    33	 1
   13    17	 1
   13    44	 1
   13    34	 1
   14    17	 1
   14    44	 1
   14    15	 1
   14    32	 1
   15    35	 1
   16    44	 1
   16    32	 1
   17    33	 1
   18    31	 1
   18    28	 1
   18    25	 1
   18    38	 1
   19    40	 1
   19    41	 1
   19    42	 1
   19    23	 1
   19    39	 1
   19    25	 1
   19    38	 1
   20    24	 1
   20    23	 1
   20    39	 1
   20    26	 1
   20    27	 1
   20    43	 1
   21    24	 1
   21    36	 1
   21    37	 1
   22    36	 1
   22    37	 1
   22    40	 1
   22    41	 1
   22    42	 1
   22    26	 1
   22    27	 1
   22    43	 1
   23    24	 1
   23    25	 1
   23    38	 1
   24    36	 1
   24    37	 1
   24    39	 1
   25    39	 1
   26    38	 1
   27    38	 1
   29    30	 1
   30    31	 1
   32    33	 1
   33    34	 1
   34    35	 1
   35    44	 1
   38    39	 1
   38    43	 1

[ angles ]
;	ai	  aj	ak funct			c0			  c1			c2			  c3
    6     1     2	5 ;     CG2R61     CG2R61     CG2R61
    6     1    18	5 ;     CG2R61     CG2R61     CG3C50
    2     1    18	5 ;     CG2R61     CG2R61     CG3C50
    3     2     1	5 ;     CG2R61     CG2R61     CG2R61
    3     2    28	5 ;     CG2R61     CG2R61      HGR61
    1     2    28	5 ;     CG2R61     CG2R61      HGR61
    4     3     7	5 ;     CG2R61     CG2R61      NG2S1
    4     3     2	5 ;     CG2R61     CG2R61     CG2R61
    7     3     2	5 ;      NG2S1     CG2R61     CG2R61
    5     4     3	5 ;     CG2R61     CG2R61     CG2R61
    5     4    29	5 ;     CG2R61     CG2R61      HGR61
    3     4    29	5 ;     CG2R61     CG2R61      HGR61
    4     5     6	5 ;     CG2R61     CG2R61     CG2R61
    4     5    30	5 ;     CG2R61     CG2R61      HGR61
    6     5    30	5 ;     CG2R61     CG2R61      HGR61
    5     6     1	5 ;     CG2R61     CG2R61     CG2R61
    5     6    31	5 ;     CG2R61     CG2R61      HGR61
    1     6    31	5 ;     CG2R61     CG2R61      HGR61
   10     7     3	5 ;       HGP1      NG2S1     CG2R61
   10     7     8	5 ;       HGP1      NG2S1      CG2O1
    3     7     8	5 ;     CG2R61      NG2S1      CG2O1
    7     8    11	5 ;      NG2S1      CG2O1      CG311
    7     8     9	5 ;      NG2S1      CG2O1      OG2D1
   11     8     9	5 ;      CG311      CG2O1      OG2D1
   17    11     8	5 ;     CG2DC2      CG311      CG2O1
   17    11    12	5 ;     CG2DC2      CG311      NG311
   17    11    44	5 ;     CG2DC2      CG311       HGA1
    8    11    12	5 ;      CG2O1      CG311      NG311
    8    11    44	5 ;      CG2O1      CG311       HGA1
   12    11    44	5 ;      NG311      CG311       HGA1
   11    12    13	5 ;      CG311      NG311     CG2D1O
   11    12    14	5 ;      CG311      NG311     HGPAM1
   13    12    14	5 ;     CG2D1O      NG311     HGPAM1
   15    13    12	5 ;     CG2DC1     CG2D1O      NG311
   15    13    32	5 ;     CG2DC1     CG2D1O       HGA4
   12    13    32	5 ;      NG311     CG2D1O       HGA4
   16    15    13	5 ;     CG2DC2     CG2DC1     CG2D1O
   16    15    33	5 ;     CG2DC2     CG2DC1       HGA4
   13    15    33	5 ;     CG2D1O     CG2DC1       HGA4
   17    16    15	5 ;     CG2DC2     CG2DC2     CG2DC1
   17    16    34	5 ;     CG2DC2     CG2DC2       HGA4
   15    16    34	5 ;     CG2DC1     CG2DC2       HGA4
   16    17    11	5 ;     CG2DC2     CG2DC2      CG311
   16    17    35	5 ;     CG2DC2     CG2DC2       HGA4
   11    17    35	5 ;      CG311     CG2DC2       HGA4
   19    18     1	5 ;     CG3C52     CG3C50     CG2R61
   19    18    24	5 ;     CG3C52     CG3C50      CG331
   19    18    22	5 ;     CG3C52     CG3C50      NG3P2
    1    18    24	5 ;     CG2R61     CG3C50      CG331
    1    18    22	5 ;     CG2R61     CG3C50      NG3P2
   24    18    22	5 ;      CG331     CG3C50      NG3P2
   20    19    18	5 ;      SG311     CG3C52     CG3C50
   20    19    36	5 ;      SG311     CG3C52       HGA2
   20    19    37	5 ;      SG311     CG3C52       HGA2
   18    19    36	5 ;     CG3C50     CG3C52       HGA2
   18    19    37	5 ;     CG3C50     CG3C52       HGA2
   36    19    37	5 ;       HGA2     CG3C52       HGA2
   19    20    21	5 ;     CG3C52      SG311     CG3C53
   20    21    22	5 ;      SG311     CG3C53      NG3P2
   20    21    25	5 ;      SG311     CG3C53      NG3P3
   20    21    38	5 ;      SG311     CG3C53       HGA1
   22    21    25	5 ;      NG3P2     CG3C53      NG3P3
   22    21    38	5 ;      NG3P2     CG3C53       HGA1
   25    21    38	5 ;      NG3P3     CG3C53       HGA1
   18    22    21	5 ;     CG3C50      NG3P2     CG3C53
   18    22    23	5 ;     CG3C50      NG3P2       HGP2
   18    22    39	5 ;     CG3C50      NG3P2       HGP2
   21    22    23	5 ;     CG3C53      NG3P2       HGP2
   21    22    39	5 ;     CG3C53      NG3P2       HGP2
   23    22    39	5 ;       HGP2      NG3P2       HGP2
   18    24    40	5 ;     CG3C50      CG331       HGA3
   18    24    41	5 ;     CG3C50      CG331       HGA3
   18    24    42	5 ;     CG3C50      CG331       HGA3
   40    24    41	5 ;       HGA3      CG331       HGA3
   40    24    42	5 ;       HGA3      CG331       HGA3
   41    24    42	5 ;       HGA3      CG331       HGA3
   21    25    26	5 ;     CG3C53      NG3P3       HGP2
   21    25    27	5 ;     CG3C53      NG3P3       HGP2
   21    25    43	5 ;     CG3C53      NG3P3       HGP2
   26    25    27	5 ;       HGP2      NG3P3       HGP2
   26    25    43	5 ;       HGP2      NG3P3       HGP2
   27    25    43	5 ;       HGP2      NG3P3       HGP2

[ dihedrals ]
;	ai	  aj	ak	  al funct			  c0			c1			  c2			c3			  c4			c5
    2     1     6     5	 9 ;     CG2R61     CG2R61     CG2R61     CG2R61
    2     1     6    31	 9 ;     CG2R61     CG2R61     CG2R61      HGR61
   18     1     6     5	 9 ;     CG3C50     CG2R61     CG2R61     CG2R61
   18     1     6    31	 9 ;     CG3C50     CG2R61     CG2R61      HGR61
    6     1     2     3	 9 ;     CG2R61     CG2R61     CG2R61     CG2R61
    6     1     2    28	 9 ;     CG2R61     CG2R61     CG2R61      HGR61
   18     1     2     3	 9 ;     CG3C50     CG2R61     CG2R61     CG2R61
   18     1     2    28	 9 ;     CG3C50     CG2R61     CG2R61      HGR61
    6     1    18    19	 9 ;     CG2R61     CG2R61     CG3C50     CG3C52
    6     1    18    24	 9 ;     CG2R61     CG2R61     CG3C50      CG331
    6     1    18    22	 9 ;     CG2R61     CG2R61     CG3C50      NG3P2
    2     1    18    19	 9 ;     CG2R61     CG2R61     CG3C50     CG3C52
    2     1    18    24	 9 ;     CG2R61     CG2R61     CG3C50      CG331
    2     1    18    22	 9 ;     CG2R61     CG2R61     CG3C50      NG3P2
    1     2     3     4	 9 ;     CG2R61     CG2R61     CG2R61     CG2R61
    1     2     3     7	 9 ;     CG2R61     CG2R61     CG2R61      NG2S1
   28     2     3     4	 9 ;      HGR61     CG2R61     CG2R61     CG2R61
   28     2     3     7	 9 ;      HGR61     CG2R61     CG2R61      NG2S1
    7     3     4     5	 9 ;      NG2S1     CG2R61     CG2R61     CG2R61
    7     3     4    29	 9 ;      NG2S1     CG2R61     CG2R61      HGR61
    2     3     4     5	 9 ;     CG2R61     CG2R61     CG2R61     CG2R61
    2     3     4    29	 9 ;     CG2R61     CG2R61     CG2R61      HGR61
    4     3     7    10	 9 ;     CG2R61     CG2R61      NG2S1       HGP1
    4     3     7     8	 9 ;     CG2R61     CG2R61      NG2S1      CG2O1
    2     3     7    10	 9 ;     CG2R61     CG2R61      NG2S1       HGP1
    2     3     7     8	 9 ;     CG2R61     CG2R61      NG2S1      CG2O1
    3     4     5     6	 9 ;     CG2R61     CG2R61     CG2R61     CG2R61
    3     4     5    30	 9 ;     CG2R61     CG2R61     CG2R61      HGR61
   29     4     5     6	 9 ;      HGR61     CG2R61     CG2R61     CG2R61
   29     4     5    30	 9 ;      HGR61     CG2R61     CG2R61      HGR61
    4     5     6     1	 9 ;     CG2R61     CG2R61     CG2R61     CG2R61
    4     5     6    31	 9 ;     CG2R61     CG2R61     CG2R61      HGR61
   30     5     6     1	 9 ;      HGR61     CG2R61     CG2R61     CG2R61
   30     5     6    31	 9 ;      HGR61     CG2R61     CG2R61      HGR61
   10     7     8    11	 9 ;       HGP1      NG2S1      CG2O1      CG311
   10     7     8     9	 9 ;       HGP1      NG2S1      CG2O1      OG2D1
    3     7     8    11	 9 ;     CG2R61      NG2S1      CG2O1      CG311
    3     7     8     9	 9 ;     CG2R61      NG2S1      CG2O1      OG2D1
    7     8    11    17	 9 ;      NG2S1      CG2O1      CG311     CG2DC2
    7     8    11    12	 9 ;      NG2S1      CG2O1      CG311      NG311
    7     8    11    44	 9 ;      NG2S1      CG2O1      CG311       HGA1
    9     8    11    17	 9 ;      OG2D1      CG2O1      CG311     CG2DC2
    9     8    11    12	 9 ;      OG2D1      CG2O1      CG311      NG311
    9     8    11    44	 9 ;      OG2D1      CG2O1      CG311       HGA1
    8    11    17    16	 9 ;      CG2O1      CG311     CG2DC2     CG2DC2
    8    11    17    35	 9 ;      CG2O1      CG311     CG2DC2       HGA4
   12    11    17    16	 9 ;      NG311      CG311     CG2DC2     CG2DC2
   12    11    17    35	 9 ;      NG311      CG311     CG2DC2       HGA4
   44    11    17    16	 9 ;       HGA1      CG311     CG2DC2     CG2DC2
   44    11    17    35	 9 ;       HGA1      CG311     CG2DC2       HGA4
   17    11    12    13	 9 ;     CG2DC2      CG311      NG311     CG2D1O
   17    11    12    14	 9 ;     CG2DC2      CG311      NG311     HGPAM1
    8    11    12    13	 9 ;      CG2O1      CG311      NG311     CG2D1O
    8    11    12    14	 9 ;      CG2O1      CG311      NG311     HGPAM1
   44    11    12    13	 9 ;       HGA1      CG311      NG311     CG2D1O
   44    11    12    14	 9 ;       HGA1      CG311      NG311     HGPAM1
   11    12    13    15	 9 ;      CG311      NG311     CG2D1O     CG2DC1
   11    12    13    32	 9 ;      CG311      NG311     CG2D1O       HGA4
   14    12    13    15	 9 ;     HGPAM1      NG311     CG2D1O     CG2DC1
   14    12    13    32	 9 ;     HGPAM1      NG311     CG2D1O       HGA4
   12    13    15    16	 9 ;      NG311     CG2D1O     CG2DC1     CG2DC2
   12    13    15    33	 9 ;      NG311     CG2D1O     CG2DC1       HGA4
   32    13    15    16	 9 ;       HGA4     CG2D1O     CG2DC1     CG2DC2
   32    13    15    33	 9 ;       HGA4     CG2D1O     CG2DC1       HGA4
   13    15    16    17	 9 ;     CG2D1O     CG2DC1     CG2DC2     CG2DC2
   13    15    16    34	 9 ;     CG2D1O     CG2DC1     CG2DC2       HGA4
   33    15    16    17	 9 ;       HGA4     CG2DC1     CG2DC2     CG2DC2
   33    15    16    34	 9 ;       HGA4     CG2DC1     CG2DC2       HGA4
   15    16    17    11	 9 ;     CG2DC1     CG2DC2     CG2DC2      CG311
   15    16    17    35	 9 ;     CG2DC1     CG2DC2     CG2DC2       HGA4
   34    16    17    11	 9 ;       HGA4     CG2DC2     CG2DC2      CG311
   34    16    17    35	 9 ;       HGA4     CG2DC2     CG2DC2       HGA4
    1    18    19    20	 9 ;     CG2R61     CG3C50     CG3C52      SG311
    1    18    19    36	 9 ;     CG2R61     CG3C50     CG3C52       HGA2
    1    18    19    37	 9 ;     CG2R61     CG3C50     CG3C52       HGA2
   24    18    19    20	 9 ;      CG331     CG3C50     CG3C52      SG311
   24    18    19    36	 9 ;      CG331     CG3C50     CG3C52       HGA2
   24    18    19    37	 9 ;      CG331     CG3C50     CG3C52       HGA2
   22    18    19    20	 9 ;      NG3P2     CG3C50     CG3C52      SG311
   22    18    19    36	 9 ;      NG3P2     CG3C50     CG3C52       HGA2
   22    18    19    37	 9 ;      NG3P2     CG3C50     CG3C52       HGA2
   19    18    24    40	 9 ;     CG3C52     CG3C50      CG331       HGA3
   19    18    24    41	 9 ;     CG3C52     CG3C50      CG331       HGA3
   19    18    24    42	 9 ;     CG3C52     CG3C50      CG331       HGA3
    1    18    24    40	 9 ;     CG2R61     CG3C50      CG331       HGA3
    1    18    24    41	 9 ;     CG2R61     CG3C50      CG331       HGA3
    1    18    24    42	 9 ;     CG2R61     CG3C50      CG331       HGA3
   22    18    24    40	 9 ;      NG3P2     CG3C50      CG331       HGA3
   22    18    24    41	 9 ;      NG3P2     CG3C50      CG331       HGA3
   22    18    24    42	 9 ;      NG3P2     CG3C50      CG331       HGA3
   19    18    22    21	 9 ;     CG3C52     CG3C50      NG3P2     CG3C53
   19    18    22    23	 9 ;     CG3C52     CG3C50      NG3P2       HGP2
   19    18    22    39	 9 ;     CG3C52     CG3C50      NG3P2       HGP2
    1    18    22    21	 9 ;     CG2R61     CG3C50      NG3P2     CG3C53
    1    18    22    23	 9 ;     CG2R61     CG3C50      NG3P2       HGP2
    1    18    22    39	 9 ;     CG2R61     CG3C50      NG3P2       HGP2
   24    18    22    21	 9 ;      CG331     CG3C50      NG3P2     CG3C53
   24    18    22    23	 9 ;      CG331     CG3C50      NG3P2       HGP2
   24    18    22    39	 9 ;      CG331     CG3C50      NG3P2       HGP2
   18    19    20    21	 9 ;     CG3C50     CG3C52      SG311     CG3C53
   36    19    20    21	 9 ;       HGA2     CG3C52      SG311     CG3C53
   37    19    20    21	 9 ;       HGA2     CG3C52      SG311     CG3C53
   19    20    21    22	 9 ;     CG3C52      SG311     CG3C53      NG3P2
   19    20    21    25	 9 ;     CG3C52      SG311     CG3C53      NG3P3
   19    20    21    38	 9 ;     CG3C52      SG311     CG3C53       HGA1
   20    21    22    18	 9 ;      SG311     CG3C53      NG3P2     CG3C50
   20    21    22    23	 9 ;      SG311     CG3C53      NG3P2       HGP2
   20    21    22    39	 9 ;      SG311     CG3C53      NG3P2       HGP2
   25    21    22    18	 9 ;      NG3P3     CG3C53      NG3P2     CG3C50
   25    21    22    23	 9 ;      NG3P3     CG3C53      NG3P2       HGP2
   25    21    22    39	 9 ;      NG3P3     CG3C53      NG3P2       HGP2
   38    21    22    18	 9 ;       HGA1     CG3C53      NG3P2     CG3C50
   38    21    22    23	 9 ;       HGA1     CG3C53      NG3P2       HGP2
   38    21    22    39	 9 ;       HGA1     CG3C53      NG3P2       HGP2
   20    21    25    26	 9 ;      SG311     CG3C53      NG3P3       HGP2
   20    21    25    27	 9 ;      SG311     CG3C53      NG3P3       HGP2
   20    21    25    43	 9 ;      SG311     CG3C53      NG3P3       HGP2
   22    21    25    26	 9 ;      NG3P2     CG3C53      NG3P3       HGP2
   22    21    25    27	 9 ;      NG3P2     CG3C53      NG3P3       HGP2
   22    21    25    43	 9 ;      NG3P2     CG3C53      NG3P3       HGP2
   38    21    25    26	 9 ;       HGA1     CG3C53      NG3P3       HGP2
   38    21    25    27	 9 ;       HGA1     CG3C53      NG3P3       HGP2
   38    21    25    43	 9 ;       HGA1     CG3C53      NG3P3       HGP2

[ dihedrals ]
;	ai	  aj	ak	  al funct			  c0			c1			  c2			c3
    8    11     7     9	 2
   13    15    12    32	 2

