Georgetown Riga Oslo Madrid Amsterdam Chisinau Stockholm
   44
    1LIG     C1    1  -1.382   0.674  -1.588
    1LIG     C2    2  -1.364   0.537  -1.559
    1LIG     C3    3  -1.243   0.486  -1.511
    1LIG     C4    4  -1.135   0.573  -1.495
    1LIG     C5    5  -1.151   0.710  -1.520
    1LIG     C6    6  -1.274   0.760  -1.565
    1LIG     N1    7  -1.225   0.351  -1.474
    1LIG     C7    8  -1.228   0.299  -1.346
    1LIG      O    9  -1.264   0.358  -1.244
    1LIG     H1   10  -1.195   0.285  -1.546
    1LIG     C8   11  -1.176   0.159  -1.334
    1LIG     N2   12  -1.260   0.066  -1.280
    1LIG     C9   13  -1.213  -0.061  -1.277
    1LIG    HN3   14  -1.353   0.090  -1.245
    1LIG    C10   15  -1.088  -0.099  -1.325
    1LIG    C11   16  -1.005  -0.001  -1.378
    1LIG    C12   17  -1.049   0.130  -1.382
    1LIG    C13   18  -1.513   0.724  -1.649
    1LIG    C14   19  -1.480   0.834  -1.753
    1LIG      S   20  -1.620   0.948  -1.745
    1LIG    C15   21  -1.661   0.888  -1.588
    1LIG     N3   22  -1.604   0.781  -1.545
    1LIG    HN4   23  -1.618   0.742  -1.452
    1LIG    C16   24  -1.591   0.607  -1.715
    1LIG     N4   25  -1.749   0.961  -1.517
    1LIG     H2   26  -1.787   1.039  -1.568
    1LIG     H3   27  -1.818   0.906  -1.465
    1LIG     HC   28  -1.447   0.469  -1.575
    1LIG    HC1   29  -1.040   0.535  -1.463
    1LIG    HC2   30  -1.068   0.777  -1.504
    1LIG    HC3   31  -1.285   0.866  -1.582
    1LIG    HC4   32  -1.276  -0.137  -1.234
    1LIG    HC5   33  -1.056  -0.202  -1.321
    1LIG    HC6   34  -0.907  -0.027  -1.416
    1LIG    HC7   35  -0.986   0.209  -1.422
    1LIG    HC8   36  -1.471   0.791  -1.852
    1LIG    HC9   37  -1.388   0.885  -1.725
    1LIG   HC10   38  -1.742   0.829  -1.630
    1LIG    HN2   39  -1.680   0.726  -1.581
    1LIG   HC11   40  -1.675   0.647  -1.771
    1LIG   HC12   41  -1.525   0.553  -1.782
    1LIG   HC13   42  -1.628   0.540  -1.637
    1LIG    HN1   43  -1.693   1.004  -1.444
    1LIG    H22   44  -1.135   0.181  -1.235
   0.00000   0.00000   0.00000
