GROwing Monsters And Cloning Shrimps
   58
    1LIG     C1    1  -1.751   0.376  -1.573
    1LIG     N1    2  -1.829   0.414  -1.467
    1LIG     C2    3  -1.952   0.359  -1.439
    1LIG      O    4  -2.016   0.394  -1.342
    1LIG     C3    5  -1.997   0.256  -1.535
    1LIG     C4    6  -1.916   0.232  -1.639
    1LIG     N2    7  -1.793   0.290  -1.661
    1LIG     HN    8  -1.738   0.268  -1.744
    1LIG     C5    9  -2.119   0.186  -1.514
    1LIG     N3   10  -2.217   0.125  -1.501
    1LIG     H1   11  -1.800   0.483  -1.398
    1LIG     C6   12  -1.610   0.435  -1.589
    1LIG     N4   13  -1.506   0.332  -1.564
    1LIG     C7   14  -1.378   0.357  -1.538
    1LIG     N5   15  -1.332   0.481  -1.528
    1LIG     C8   16  -1.283   0.245  -1.510
    1LIG     C9   17  -1.191   0.513  -1.496
    1LIG     H2   18  -1.396   0.559  -1.539
    1LIG    C10   19  -1.141   0.414  -1.389
    1LIG    C11   20  -1.189   0.656  -1.439
    1LIG    C12   21  -1.109   0.508  -1.625
    1LIG    C13   22  -1.169   0.272  -1.431
    1LIG    C14   23  -1.082   0.169  -1.390
    1LIG    C15   24  -1.105   0.039  -1.433
    1LIG     CL   25  -1.001  -0.087  -1.381
    1LIG    C16   26  -1.211   0.012  -1.519
    1LIG    C17   27  -1.299   0.114  -1.559
    1LIG     H3   28  -1.532   0.234  -1.572
    1LIG    C18   29  -1.590   0.504  -1.724
    1LIG    C19   30  -1.539   0.646  -1.710
    1LIG    C20   31  -1.587   0.728  -1.607
    1LIG    C21   32  -1.541   0.859  -1.594
    1LIG    C22   33  -1.445   0.909  -1.683
    1LIG    C23   34  -1.396   0.828  -1.784
    1LIG    C24   35  -1.442   0.697  -1.798
    1LIG     HC   36  -1.792   0.458  -1.632
    1LIG    HC1   37  -1.950   0.160  -1.712
    1LIG    HC2   38  -1.599   0.511  -1.511
    1LIG    HC3   39  -1.034   0.427  -1.375
    1LIG    HC4   40  -1.192   0.434  -1.295
    1LIG    HC5   41  -1.247   0.659  -1.347
    1LIG    HC6   42  -1.086   0.685  -1.419
    1LIG    HC7   43  -1.232   0.724  -1.512
    1LIG    HC8   44  -1.111   0.407  -1.666
    1LIG    HC9   45  -1.153   0.577  -1.698
    1LIG   HC10   46  -1.006   0.538  -1.605
    1LIG   HC11   47  -0.999   0.191  -1.325
    1LIG   HC12   48  -1.226  -0.089  -1.556
    1LIG   HC13   49  -1.380   0.091  -1.627
    1LIG   HC14   50  -1.518   0.447  -1.782
    1LIG   HC15   51  -1.685   0.506  -1.777
    1LIG   HC16   52  -1.661   0.690  -1.538
    1LIG   HC17   53  -1.578   0.922  -1.514
    1LIG   HC18   54  -1.410   1.010  -1.672
    1LIG   HC19   55  -1.322   0.866  -1.853
    1LIG   HC20   56  -1.402   0.634  -1.876
    1LIG    H26   57  -1.354   0.354  -1.644
    1LIG    LP1   58  -0.901  -0.208  -1.331
   0.00000   0.00000   0.00000
