; Created by cgenff_charmm2gmx.py

[ moleculetype ]
; Name			   nrexcl
LIG				 3

[ atoms ]
;	 nr		  type	resnr residue  atom   cgnr	   charge		mass  typeB    chargeB		massB
; residue	 1 LIG rtp LIG q	qsum
     1      CG311      1    LIG     C1      1      0.110     12.011   ;
     2      NG2S1      1    LIG     N1      2     -0.382     14.007   ;
     3      CG2O1      1    LIG     C2      3      0.341     12.011   ;
     4      OG2D1      1    LIG      O      4     -0.527     15.999   ;
     5     CG2DC1      1    LIG     C3      5      0.412     12.011   ;
     6     CG2D1O      1    LIG     C4      6     -0.159     12.011   ;
     7      NG311      1    LIG     N2      7     -0.431     14.007   ;
     8     HGPAM1      1    LIG     HN      8      0.375      1.008   ;
     9      CG1N1      1    LIG     C5      9      0.214     12.011   ;
    10      NG1T1      1    LIG     N3     10     -0.413     14.007   ;
    11       HGP1      1    LIG     H1     11      0.226      1.008   ;
    12      CG311      1    LIG     C6     12      0.210     12.011   ;
    13      NG311      1    LIG     N4     13     -0.787     14.007   ;
    14      CG311      1    LIG     C7     14      0.302     12.011   ;
    15      NG311      1    LIG     N5     15     -0.864     14.007   ;
    16     CG2R61      1    LIG     C8     16     -0.052     12.011   ;
    17      CG301      1    LIG     C9     17      0.375     12.011   ;
    18     HGPAM1      1    LIG     H2     18      0.350      1.008   ;
    19      CG321      1    LIG    C10     19     -0.230     12.011   ;
    20      CG331      1    LIG    C11     20     -0.295     12.011   ;
    21      CG331      1    LIG    C12     21     -0.295     12.011   ;
    22     CG2R61      1    LIG    C13     22      0.075     12.011   ;
    23     CG2R61      1    LIG    C14     23     -0.121     12.011   ;
    24     CG2R61      1    LIG    C15     24      0.048     12.011   ;
    25      CLGR1      1    LIG     CL     25     -0.200     35.453   ;
    26     CG2R61      1    LIG    C16     26     -0.099     12.011   ;
    27     CG2R61      1    LIG    C17     27     -0.108     12.011   ;
    28     HGPAM1      1    LIG     H3     28      0.359      1.008   ;
    29      CG321      1    LIG    C18     29     -0.211     12.011   ;
    30     CG2R61      1    LIG    C19     30      0.002     12.011   ;
    31     CG2R61      1    LIG    C20     31     -0.123     12.011   ;
    32     CG2R61      1    LIG    C21     32     -0.112     12.011   ;
    33     CG2R61      1    LIG    C22     33     -0.116     12.011   ;
    34     CG2R61      1    LIG    C23     34     -0.112     12.011   ;
    35     CG2R61      1    LIG    C24     35     -0.123     12.011   ;
    36       HGA1      1    LIG     HC     36      0.090      1.008   ;
    37       HGA4      1    LIG    HC1     37      0.150      1.008   ;
    38       HGA1      1    LIG    HC2     38      0.090      1.008   ;
    39       HGA2      1    LIG    HC3     39      0.090      1.008   ;
    40       HGA2      1    LIG    HC4     40      0.090      1.008   ;
    41       HGA3      1    LIG    HC5     41      0.090      1.008   ;
    42       HGA3      1    LIG    HC6     42      0.090      1.008   ;
    43       HGA3      1    LIG    HC7     43      0.090      1.008   ;
    44       HGA3      1    LIG    HC8     44      0.090      1.008   ;
    45       HGA3      1    LIG    HC9     45      0.090      1.008   ;
    46       HGA3      1    LIG   HC10     46      0.090      1.008   ;
    47      HGR62      1    LIG   HC11     47      0.145      1.008   ;
    48      HGR62      1    LIG   HC12     48      0.150      1.008   ;
    49      HGR61      1    LIG   HC13     49      0.116      1.008   ;
    50       HGA2      1    LIG   HC14     50      0.090      1.008   ;
    51       HGA2      1    LIG   HC15     51      0.090      1.008   ;
    52      HGR61      1    LIG   HC16     52      0.116      1.008   ;
    53      HGR61      1    LIG   HC17     53      0.116      1.008   ;
    54      HGR61      1    LIG   HC18     54      0.116      1.008   ;
    55      HGR61      1    LIG   HC19     55      0.116      1.008   ;
    56      HGR61      1    LIG   HC20     56      0.116      1.008   ;
    57       HGA1      1    LIG    H26     57      0.090      1.008   ;
    58        LPH      1    LIG    LP1     58      0.050      0.000   ;

[ bonds ]
;	ai	  aj funct			  c0			c1			  c2			c3
    1    12	 1 ;       CG311      CG311
    1     7	 1 ;       CG311      NG311
    1     2	 1 ;       CG311      NG2S1
    1    36	 1 ;       CG311       HGA1
    2    11	 1 ;       NG2S1       HGP1
    2     3	 1 ;       NG2S1      CG2O1
    3     5	 1 ;       CG2O1     CG2DC1
    3     4	 1 ;       CG2O1      OG2D1
    5     6	 1 ;      CG2DC1     CG2D1O
    5     9	 1 ;      CG2DC1      CG1N1
    6     7	 1 ;      CG2D1O      NG311
    6    37	 1 ;      CG2D1O       HGA4
    7     8	 1 ;       NG311     HGPAM1
    9    10	 1 ;       CG1N1      NG1T1
   12    29	 1 ;       CG311      CG321
   12    13	 1 ;       CG311      NG311
   12    38	 1 ;       CG311       HGA1
   13    14	 1 ;       NG311      CG311
   13    28	 1 ;       NG311     HGPAM1
   14    15	 1 ;       CG311      NG311
   14    16	 1 ;       CG311     CG2R61
   14    57	 1 ;       CG311       HGA1
   15    17	 1 ;       NG311      CG301
   15    18	 1 ;       NG311     HGPAM1
   16    22	 1 ;      CG2R61     CG2R61
   16    27	 1 ;      CG2R61     CG2R61
   17    21	 1 ;       CG301      CG331
   17    20	 1 ;       CG301      CG331
   17    19	 1 ;       CG301      CG321
   19    22	 1 ;       CG321     CG2R61
   19    39	 1 ;       CG321       HGA2
   19    40	 1 ;       CG321       HGA2
   20    41	 1 ;       CG331       HGA3
   20    42	 1 ;       CG331       HGA3
   20    43	 1 ;       CG331       HGA3
   21    44	 1 ;       CG331       HGA3
   21    45	 1 ;       CG331       HGA3
   21    46	 1 ;       CG331       HGA3
   22    23	 1 ;      CG2R61     CG2R61
   23    24	 1 ;      CG2R61     CG2R61
   23    47	 1 ;      CG2R61      HGR62
   24    25	 1 ;      CG2R61      CLGR1
   24    26	 1 ;      CG2R61     CG2R61
   26    27	 1 ;      CG2R61     CG2R61
   26    48	 1 ;      CG2R61      HGR62
   27    49	 1 ;      CG2R61      HGR61
   29    30	 1 ;       CG321     CG2R61
   29    50	 1 ;       CG321       HGA2
   29    51	 1 ;       CG321       HGA2
   30    35	 1 ;      CG2R61     CG2R61
   30    31	 1 ;      CG2R61     CG2R61
   31    32	 1 ;      CG2R61     CG2R61
   31    52	 1 ;      CG2R61      HGR61
   32    33	 1 ;      CG2R61     CG2R61
   32    53	 1 ;      CG2R61      HGR61
   33    34	 1 ;      CG2R61     CG2R61
   33    54	 1 ;      CG2R61      HGR61
   34    35	 1 ;      CG2R61     CG2R61
   34    55	 1 ;      CG2R61      HGR61
   35    56	 1 ;      CG2R61      HGR61

[ pairs ]
;	ai	  aj funct			  c0			c1			  c2			c3
    1     5	 1
    1     4	 1
    1    37	 1
    1    30	 1
    1    50	 1
    1    51	 1
    1    14	 1
    1    28	 1
    2    29	 1
    2    13	 1
    2    38	 1
    2     8	 1
    2     6	 1
    2     9	 1
    3    12	 1
    3     7	 1
    3    36	 1
    3    37	 1
    3    10	 1
    4    11	 1
    4     6	 1
    4     9	 1
    5    11	 1
    5     8	 1
    6    12	 1
    6    36	 1
    6    10	 1
    7    29	 1
    7    13	 1
    7    38	 1
    7    11	 1
    7     9	 1
    8    12	 1
    8    36	 1
    8    37	 1
    9    37	 1
   11    12	 1
   11    36	 1
   12    15	 1
   12    16	 1
   12    57	 1
   12    35	 1
   12    31	 1
   13    36	 1
   13    30	 1
   13    50	 1
   13    51	 1
   13    17	 1
   13    18	 1
   13    22	 1
   13    27	 1
   14    29	 1
   14    38	 1
   14    21	 1
   14    20	 1
   14    19	 1
   14    23	 1
   14    26	 1
   14    49	 1
   15    28	 1
   15    22	 1
   15    27	 1
   15    44	 1
   15    45	 1
   15    46	 1
   15    41	 1
   15    42	 1
   15    43	 1
   15    39	 1
   15    40	 1
   16    28	 1
   16    17	 1
   16    18	 1
   16    39	 1
   16    40	 1
   16    24	 1
   16    47	 1
   16    48	 1
   17    57	 1
   17    23	 1
   18    57	 1
   18    21	 1
   18    20	 1
   18    19	 1
   19    27	 1
   19    44	 1
   19    45	 1
   19    46	 1
   19    41	 1
   19    42	 1
   19    43	 1
   19    24	 1
   19    47	 1
   20    44	 1
   20    45	 1
   20    46	 1
   20    22	 1
   20    39	 1
   20    40	 1
   21    41	 1
   21    42	 1
   21    43	 1
   21    22	 1
   21    39	 1
   21    40	 1
   22    57	 1
   22    26	 1
   22    49	 1
   22    25	 1
   58    22	 1
   23    27	 1
   23    39	 1
   23    40	 1
   23    48	 1
   24    49	 1
   25    47	 1
   58    47	 1
   25    27	 1
   58    27	 1
   25    48	 1
   58    48	 1
   26    47	 1
   27    57	 1
   28    29	 1
   28    38	 1
   28    57	 1
   29    36	 1
   29    34	 1
   29    56	 1
   29    32	 1
   29    52	 1
   30    38	 1
   30    33	 1
   30    53	 1
   30    55	 1
   31    50	 1
   31    51	 1
   31    34	 1
   31    56	 1
   31    54	 1
   32    35	 1
   32    55	 1
   33    52	 1
   33    56	 1
   34    53	 1
   35    50	 1
   35    51	 1
   35    52	 1
   35    54	 1
   36    38	 1
   38    50	 1
   38    51	 1
   48    49	 1
   52    53	 1
   53    54	 1
   54    55	 1
   55    56	 1

[ angles ]
;	ai	  aj	ak funct			c0			  c1			c2			  c3
   12     1     7	5 ;      CG311      CG311      NG311
   12     1     2	5 ;      CG311      CG311      NG2S1
   12     1    36	5 ;      CG311      CG311       HGA1
    7     1     2	5 ;      NG311      CG311      NG2S1
    7     1    36	5 ;      NG311      CG311       HGA1
    2     1    36	5 ;      NG2S1      CG311       HGA1
    1     2    11	5 ;      CG311      NG2S1       HGP1
    1     2     3	5 ;      CG311      NG2S1      CG2O1
   11     2     3	5 ;       HGP1      NG2S1      CG2O1
    2     3     5	5 ;      NG2S1      CG2O1     CG2DC1
    2     3     4	5 ;      NG2S1      CG2O1      OG2D1
    5     3     4	5 ;     CG2DC1      CG2O1      OG2D1
    6     5     3	5 ;     CG2D1O     CG2DC1      CG2O1
    6     5     9	5 ;     CG2D1O     CG2DC1      CG1N1
    3     5     9	5 ;      CG2O1     CG2DC1      CG1N1
    7     6     5	5 ;      NG311     CG2D1O     CG2DC1
    7     6    37	5 ;      NG311     CG2D1O       HGA4
    5     6    37	5 ;     CG2DC1     CG2D1O       HGA4
    8     7     1	5 ;     HGPAM1      NG311      CG311
    8     7     6	5 ;     HGPAM1      NG311     CG2D1O
    1     7     6	5 ;      CG311      NG311     CG2D1O
    5     9    10	5 ;     CG2DC1      CG1N1      NG1T1
   29    12    13	5 ;      CG321      CG311      NG311
   29    12     1	5 ;      CG321      CG311      CG311
   29    12    38	5 ;      CG321      CG311       HGA1
   13    12     1	5 ;      NG311      CG311      CG311
   13    12    38	5 ;      NG311      CG311       HGA1
    1    12    38	5 ;      CG311      CG311       HGA1
   14    13    28	5 ;      CG311      NG311     HGPAM1
   14    13    12	5 ;      CG311      NG311      CG311
   28    13    12	5 ;     HGPAM1      NG311      CG311
   15    14    16	5 ;      NG311      CG311     CG2R61
   15    14    13	5 ;      NG311      CG311      NG311
   15    14    57	5 ;      NG311      CG311       HGA1
   16    14    13	5 ;     CG2R61      CG311      NG311
   16    14    57	5 ;     CG2R61      CG311       HGA1
   13    14    57	5 ;      NG311      CG311       HGA1
   17    15    18	5 ;      CG301      NG311     HGPAM1
   17    15    14	5 ;      CG301      NG311      CG311
   18    15    14	5 ;     HGPAM1      NG311      CG311
   22    16    27	5 ;     CG2R61     CG2R61     CG2R61
   22    16    14	5 ;     CG2R61     CG2R61      CG311
   27    16    14	5 ;     CG2R61     CG2R61      CG311
   21    17    20	5 ;      CG331      CG301      CG331
   21    17    19	5 ;      CG331      CG301      CG321
   21    17    15	5 ;      CG331      CG301      NG311
   20    17    19	5 ;      CG331      CG301      CG321
   20    17    15	5 ;      CG331      CG301      NG311
   19    17    15	5 ;      CG321      CG301      NG311
   17    19    22	5 ;      CG301      CG321     CG2R61
   17    19    39	5 ;      CG301      CG321       HGA2
   17    19    40	5 ;      CG301      CG321       HGA2
   22    19    39	5 ;     CG2R61      CG321       HGA2
   22    19    40	5 ;     CG2R61      CG321       HGA2
   39    19    40	5 ;       HGA2      CG321       HGA2
   17    20    41	5 ;      CG301      CG331       HGA3
   17    20    42	5 ;      CG301      CG331       HGA3
   17    20    43	5 ;      CG301      CG331       HGA3
   41    20    42	5 ;       HGA3      CG331       HGA3
   41    20    43	5 ;       HGA3      CG331       HGA3
   42    20    43	5 ;       HGA3      CG331       HGA3
   17    21    44	5 ;      CG301      CG331       HGA3
   17    21    45	5 ;      CG301      CG331       HGA3
   17    21    46	5 ;      CG301      CG331       HGA3
   44    21    45	5 ;       HGA3      CG331       HGA3
   44    21    46	5 ;       HGA3      CG331       HGA3
   45    21    46	5 ;       HGA3      CG331       HGA3
   19    22    23	5 ;      CG321     CG2R61     CG2R61
   19    22    16	5 ;      CG321     CG2R61     CG2R61
   23    22    16	5 ;     CG2R61     CG2R61     CG2R61
   24    23    22	5 ;     CG2R61     CG2R61     CG2R61
   24    23    47	5 ;     CG2R61     CG2R61      HGR62
   22    23    47	5 ;     CG2R61     CG2R61      HGR62
   25    24    23	5 ;      CLGR1     CG2R61     CG2R61
   25    24    26	5 ;      CLGR1     CG2R61     CG2R61
   23    24    26	5 ;     CG2R61     CG2R61     CG2R61
   24    26    27	5 ;     CG2R61     CG2R61     CG2R61
   24    26    48	5 ;     CG2R61     CG2R61      HGR62
   27    26    48	5 ;     CG2R61     CG2R61      HGR62
   26    27    16	5 ;     CG2R61     CG2R61     CG2R61
   26    27    49	5 ;     CG2R61     CG2R61      HGR61
   16    27    49	5 ;     CG2R61     CG2R61      HGR61
   30    29    12	5 ;     CG2R61      CG321      CG311
   30    29    50	5 ;     CG2R61      CG321       HGA2
   30    29    51	5 ;     CG2R61      CG321       HGA2
   12    29    50	5 ;      CG311      CG321       HGA2
   12    29    51	5 ;      CG311      CG321       HGA2
   50    29    51	5 ;       HGA2      CG321       HGA2
   35    30    29	5 ;     CG2R61     CG2R61      CG321
   35    30    31	5 ;     CG2R61     CG2R61     CG2R61
   29    30    31	5 ;      CG321     CG2R61     CG2R61
   30    31    32	5 ;     CG2R61     CG2R61     CG2R61
   30    31    52	5 ;     CG2R61     CG2R61      HGR61
   32    31    52	5 ;     CG2R61     CG2R61      HGR61
   33    32    31	5 ;     CG2R61     CG2R61     CG2R61
   33    32    53	5 ;     CG2R61     CG2R61      HGR61
   31    32    53	5 ;     CG2R61     CG2R61      HGR61
   34    33    32	5 ;     CG2R61     CG2R61     CG2R61
   34    33    54	5 ;     CG2R61     CG2R61      HGR61
   32    33    54	5 ;     CG2R61     CG2R61      HGR61
   35    34    33	5 ;     CG2R61     CG2R61     CG2R61
   35    34    55	5 ;     CG2R61     CG2R61      HGR61
   33    34    55	5 ;     CG2R61     CG2R61      HGR61
   34    35    30	5 ;     CG2R61     CG2R61     CG2R61
   34    35    56	5 ;     CG2R61     CG2R61      HGR61
   30    35    56	5 ;     CG2R61     CG2R61      HGR61

[ dihedrals ]
;	ai	  aj	ak	  al funct			  c0			c1			  c2			c3			  c4			c5
    7     1    12    29	 9 ;      NG311      CG311      CG311      CG321
    7     1    12    13	 9 ;      NG311      CG311      CG311      NG311
    7     1    12    38	 9 ;      NG311      CG311      CG311       HGA1
    2     1    12    29	 9 ;      NG2S1      CG311      CG311      CG321
    2     1    12    13	 9 ;      NG2S1      CG311      CG311      NG311
    2     1    12    38	 9 ;      NG2S1      CG311      CG311       HGA1
   36     1    12    29	 9 ;       HGA1      CG311      CG311      CG321
   36     1    12    13	 9 ;       HGA1      CG311      CG311      NG311
   36     1    12    38	 9 ;       HGA1      CG311      CG311       HGA1
   12     1     7     8	 9 ;      CG311      CG311      NG311     HGPAM1
   12     1     7     6	 9 ;      CG311      CG311      NG311     CG2D1O
    2     1     7     8	 9 ;      NG2S1      CG311      NG311     HGPAM1
    2     1     7     6	 9 ;      NG2S1      CG311      NG311     CG2D1O
   36     1     7     8	 9 ;       HGA1      CG311      NG311     HGPAM1
   36     1     7     6	 9 ;       HGA1      CG311      NG311     CG2D1O
   12     1     2    11	 9 ;      CG311      CG311      NG2S1       HGP1
   12     1     2     3	 9 ;      CG311      CG311      NG2S1      CG2O1
    7     1     2    11	 9 ;      NG311      CG311      NG2S1       HGP1
    7     1     2     3	 9 ;      NG311      CG311      NG2S1      CG2O1
   36     1     2    11	 9 ;       HGA1      CG311      NG2S1       HGP1
   36     1     2     3	 9 ;       HGA1      CG311      NG2S1      CG2O1
    1     2     3     5	 9 ;      CG311      NG2S1      CG2O1     CG2DC1
    1     2     3     4	 9 ;      CG311      NG2S1      CG2O1      OG2D1
   11     2     3     5	 9 ;       HGP1      NG2S1      CG2O1     CG2DC1
   11     2     3     4	 9 ;       HGP1      NG2S1      CG2O1      OG2D1
    2     3     5     6	 9 ;      NG2S1      CG2O1     CG2DC1     CG2D1O
    2     3     5     9	 9 ;      NG2S1      CG2O1     CG2DC1      CG1N1
    4     3     5     6	 9 ;      OG2D1      CG2O1     CG2DC1     CG2D1O
    4     3     5     9	 9 ;      OG2D1      CG2O1     CG2DC1      CG1N1
    3     5     6     7	 9 ;      CG2O1     CG2DC1     CG2D1O      NG311
    3     5     6    37	 9 ;      CG2O1     CG2DC1     CG2D1O       HGA4
    9     5     6     7	 9 ;      CG1N1     CG2DC1     CG2D1O      NG311
    9     5     6    37	 9 ;      CG1N1     CG2DC1     CG2D1O       HGA4
    5     6     7     8	 9 ;     CG2DC1     CG2D1O      NG311     HGPAM1
    5     6     7     1	 9 ;     CG2DC1     CG2D1O      NG311      CG311
   37     6     7     8	 9 ;       HGA4     CG2D1O      NG311     HGPAM1
   37     6     7     1	 9 ;       HGA4     CG2D1O      NG311      CG311
   13    12    29    30	 9 ;      NG311      CG311      CG321     CG2R61
   13    12    29    50	 9 ;      NG311      CG311      CG321       HGA2
   13    12    29    51	 9 ;      NG311      CG311      CG321       HGA2
    1    12    29    30	 9 ;      CG311      CG311      CG321     CG2R61
    1    12    29    50	 9 ;      CG311      CG311      CG321       HGA2
    1    12    29    51	 9 ;      CG311      CG311      CG321       HGA2
   38    12    29    30	 9 ;       HGA1      CG311      CG321     CG2R61
   38    12    29    50	 9 ;       HGA1      CG311      CG321       HGA2
   38    12    29    51	 9 ;       HGA1      CG311      CG321       HGA2
   29    12    13    14	 9 ;      CG321      CG311      NG311      CG311
   29    12    13    28	 9 ;      CG321      CG311      NG311     HGPAM1
    1    12    13    14	 9 ;      CG311      CG311      NG311      CG311
    1    12    13    28	 9 ;      CG311      CG311      NG311     HGPAM1
   38    12    13    14	 9 ;       HGA1      CG311      NG311      CG311
   38    12    13    28	 9 ;       HGA1      CG311      NG311     HGPAM1
   28    13    14    15	 9 ;     HGPAM1      NG311      CG311      NG311
   28    13    14    16	 9 ;     HGPAM1      NG311      CG311     CG2R61
   28    13    14    57	 9 ;     HGPAM1      NG311      CG311       HGA1
   12    13    14    15	 9 ;      CG311      NG311      CG311      NG311
   12    13    14    16	 9 ;      CG311      NG311      CG311     CG2R61
   12    13    14    57	 9 ;      CG311      NG311      CG311       HGA1
   16    14    15    17	 9 ;     CG2R61      CG311      NG311      CG301
   16    14    15    18	 9 ;     CG2R61      CG311      NG311     HGPAM1
   13    14    15    17	 9 ;      NG311      CG311      NG311      CG301
   13    14    15    18	 9 ;      NG311      CG311      NG311     HGPAM1
   57    14    15    17	 9 ;       HGA1      CG311      NG311      CG301
   57    14    15    18	 9 ;       HGA1      CG311      NG311     HGPAM1
   15    14    16    22	 9 ;      NG311      CG311     CG2R61     CG2R61
   15    14    16    27	 9 ;      NG311      CG311     CG2R61     CG2R61
   13    14    16    22	 9 ;      NG311      CG311     CG2R61     CG2R61
   13    14    16    27	 9 ;      NG311      CG311     CG2R61     CG2R61
   57    14    16    22	 9 ;       HGA1      CG311     CG2R61     CG2R61
   57    14    16    27	 9 ;       HGA1      CG311     CG2R61     CG2R61
   18    15    17    21	 9 ;     HGPAM1      NG311      CG301      CG331
   18    15    17    20	 9 ;     HGPAM1      NG311      CG301      CG331
   18    15    17    19	 9 ;     HGPAM1      NG311      CG301      CG321
   14    15    17    21	 9 ;      CG311      NG311      CG301      CG331
   14    15    17    20	 9 ;      CG311      NG311      CG301      CG331
   14    15    17    19	 9 ;      CG311      NG311      CG301      CG321
   27    16    22    19	 9 ;     CG2R61     CG2R61     CG2R61      CG321
   27    16    22    23	 9 ;     CG2R61     CG2R61     CG2R61     CG2R61
   14    16    22    19	 9 ;      CG311     CG2R61     CG2R61      CG321
   14    16    22    23	 9 ;      CG311     CG2R61     CG2R61     CG2R61
   22    16    27    26	 9 ;     CG2R61     CG2R61     CG2R61     CG2R61
   22    16    27    49	 9 ;     CG2R61     CG2R61     CG2R61      HGR61
   14    16    27    26	 9 ;      CG311     CG2R61     CG2R61     CG2R61
   14    16    27    49	 9 ;      CG311     CG2R61     CG2R61      HGR61
   20    17    21    44	 9 ;      CG331      CG301      CG331       HGA3
   20    17    21    45	 9 ;      CG331      CG301      CG331       HGA3
   20    17    21    46	 9 ;      CG331      CG301      CG331       HGA3
   19    17    21    44	 9 ;      CG321      CG301      CG331       HGA3
   19    17    21    45	 9 ;      CG321      CG301      CG331       HGA3
   19    17    21    46	 9 ;      CG321      CG301      CG331       HGA3
   15    17    21    44	 9 ;      NG311      CG301      CG331       HGA3
   15    17    21    45	 9 ;      NG311      CG301      CG331       HGA3
   15    17    21    46	 9 ;      NG311      CG301      CG331       HGA3
   21    17    20    41	 9 ;      CG331      CG301      CG331       HGA3
   21    17    20    42	 9 ;      CG331      CG301      CG331       HGA3
   21    17    20    43	 9 ;      CG331      CG301      CG331       HGA3
   19    17    20    41	 9 ;      CG321      CG301      CG331       HGA3
   19    17    20    42	 9 ;      CG321      CG301      CG331       HGA3
   19    17    20    43	 9 ;      CG321      CG301      CG331       HGA3
   15    17    20    41	 9 ;      NG311      CG301      CG331       HGA3
   15    17    20    42	 9 ;      NG311      CG301      CG331       HGA3
   15    17    20    43	 9 ;      NG311      CG301      CG331       HGA3
   21    17    19    22	 9 ;      CG331      CG301      CG321     CG2R61
   21    17    19    39	 9 ;      CG331      CG301      CG321       HGA2
   21    17    19    40	 9 ;      CG331      CG301      CG321       HGA2
   20    17    19    22	 9 ;      CG331      CG301      CG321     CG2R61
   20    17    19    39	 9 ;      CG331      CG301      CG321       HGA2
   20    17    19    40	 9 ;      CG331      CG301      CG321       HGA2
   15    17    19    22	 9 ;      NG311      CG301      CG321     CG2R61
   15    17    19    39	 9 ;      NG311      CG301      CG321       HGA2
   15    17    19    40	 9 ;      NG311      CG301      CG321       HGA2
   17    19    22    23	 9 ;      CG301      CG321     CG2R61     CG2R61
   17    19    22    16	 9 ;      CG301      CG321     CG2R61     CG2R61
   39    19    22    23	 9 ;       HGA2      CG321     CG2R61     CG2R61
   39    19    22    16	 9 ;       HGA2      CG321     CG2R61     CG2R61
   40    19    22    23	 9 ;       HGA2      CG321     CG2R61     CG2R61
   40    19    22    16	 9 ;       HGA2      CG321     CG2R61     CG2R61
   19    22    23    24	 9 ;      CG321     CG2R61     CG2R61     CG2R61
   19    22    23    47	 9 ;      CG321     CG2R61     CG2R61      HGR62
   16    22    23    24	 9 ;     CG2R61     CG2R61     CG2R61     CG2R61
   16    22    23    47	 9 ;     CG2R61     CG2R61     CG2R61      HGR62
   22    23    24    25	 9 ;     CG2R61     CG2R61     CG2R61      CLGR1
   22    23    24    26	 9 ;     CG2R61     CG2R61     CG2R61     CG2R61
   47    23    24    25	 9 ;      HGR62     CG2R61     CG2R61      CLGR1
   47    23    24    26	 9 ;      HGR62     CG2R61     CG2R61     CG2R61
   25    24    26    27	 9 ;      CLGR1     CG2R61     CG2R61     CG2R61
   25    24    26    48	 9 ;      CLGR1     CG2R61     CG2R61      HGR62
   23    24    26    27	 9 ;     CG2R61     CG2R61     CG2R61     CG2R61
   23    24    26    48	 9 ;     CG2R61     CG2R61     CG2R61      HGR62
   24    26    27    16	 9 ;     CG2R61     CG2R61     CG2R61     CG2R61
   24    26    27    49	 9 ;     CG2R61     CG2R61     CG2R61      HGR61
   48    26    27    16	 9 ;      HGR62     CG2R61     CG2R61     CG2R61
   48    26    27    49	 9 ;      HGR62     CG2R61     CG2R61      HGR61
   12    29    30    35	 9 ;      CG311      CG321     CG2R61     CG2R61
   12    29    30    31	 9 ;      CG311      CG321     CG2R61     CG2R61
   50    29    30    35	 9 ;       HGA2      CG321     CG2R61     CG2R61
   50    29    30    31	 9 ;       HGA2      CG321     CG2R61     CG2R61
   51    29    30    35	 9 ;       HGA2      CG321     CG2R61     CG2R61
   51    29    30    31	 9 ;       HGA2      CG321     CG2R61     CG2R61
   29    30    35    34	 9 ;      CG321     CG2R61     CG2R61     CG2R61
   29    30    35    56	 9 ;      CG321     CG2R61     CG2R61      HGR61
   31    30    35    34	 9 ;     CG2R61     CG2R61     CG2R61     CG2R61
   31    30    35    56	 9 ;     CG2R61     CG2R61     CG2R61      HGR61
   35    30    31    32	 9 ;     CG2R61     CG2R61     CG2R61     CG2R61
   35    30    31    52	 9 ;     CG2R61     CG2R61     CG2R61      HGR61
   29    30    31    32	 9 ;      CG321     CG2R61     CG2R61     CG2R61
   29    30    31    52	 9 ;      CG321     CG2R61     CG2R61      HGR61
   30    31    32    33	 9 ;     CG2R61     CG2R61     CG2R61     CG2R61
   30    31    32    53	 9 ;     CG2R61     CG2R61     CG2R61      HGR61
   52    31    32    33	 9 ;      HGR61     CG2R61     CG2R61     CG2R61
   52    31    32    53	 9 ;      HGR61     CG2R61     CG2R61      HGR61
   31    32    33    34	 9 ;     CG2R61     CG2R61     CG2R61     CG2R61
   31    32    33    54	 9 ;     CG2R61     CG2R61     CG2R61      HGR61
   53    32    33    34	 9 ;      HGR61     CG2R61     CG2R61     CG2R61
   53    32    33    54	 9 ;      HGR61     CG2R61     CG2R61      HGR61
   32    33    34    35	 9 ;     CG2R61     CG2R61     CG2R61     CG2R61
   32    33    34    55	 9 ;     CG2R61     CG2R61     CG2R61      HGR61
   54    33    34    35	 9 ;      HGR61     CG2R61     CG2R61     CG2R61
   54    33    34    55	 9 ;      HGR61     CG2R61     CG2R61      HGR61
   33    34    35    30	 9 ;     CG2R61     CG2R61     CG2R61     CG2R61
   33    34    35    56	 9 ;     CG2R61     CG2R61     CG2R61      HGR61
   55    34    35    30	 9 ;      HGR61     CG2R61     CG2R61     CG2R61
   55    34    35    56	 9 ;      HGR61     CG2R61     CG2R61      HGR61

[ dihedrals ]
;	ai	  aj	ak	  al funct			  c0			c1			  c2			c3
    3     5     2     4	 2
    6     5     7    37	 2

[ virtual_sites2 ]
; Site   from				funct a
   58    25    24     2   -0.164

[ exclusions ]
;	ai	  aj
   25    58
   58    24
   58    23
   58    26
   58    22
   58    47
   58    27
   58    48

