Good gRace! Old Maple Actually Chews Slate
   62
    1LIG      S    1  -0.866   0.779  -2.023
    1LIG     O1    2  -0.803   0.660  -1.972
    1LIG     O2    3  -0.796   0.882  -2.094
    1LIG     N1    4  -0.961   0.841  -1.898
    1LIG     C1    5  -1.080   0.753  -1.871
    1LIG     C2    6  -1.042   0.634  -1.779
    1LIG     C3    7  -1.158   0.546  -1.731
    1LIG     N2    8  -1.267   0.631  -1.667
    1LIG     C4    9  -1.310   0.749  -1.751
    1LIG     C5   10  -1.194   0.833  -1.802
    1LIG     C6   11  -1.226   0.456  -1.835
    1LIG     C7   12  -1.117   0.701  -2.015
    1LIG     N3   13  -1.005   0.731  -2.109
    1LIG     C8   14  -1.044   0.821  -2.219
    1LIG     H1   15  -1.350   0.570  -1.664
    1LIG     C9   16  -0.924   0.966  -1.841
    1LIG    C10   17  -0.977   1.084  -1.893
    1LIG    C11   18  -0.953   1.205  -1.829
    1LIG      F   19  -1.007   1.317  -1.879
    1LIG    C12   20  -0.878   1.212  -1.712
    1LIG    C13   21  -0.824   1.095  -1.659
    1LIG    C14   22  -0.847   0.972  -1.723
    1LIG    C15   23  -1.245   0.661  -1.518
    1LIG    C16   24  -1.238   0.534  -1.435
    1LIG    C17   25  -1.148   0.523  -1.328
    1LIG    C18   26  -1.119   0.398  -1.272
    1LIG    C19   27  -1.175   0.282  -1.324
    1LIG    C20   28  -1.281   0.295  -1.414
    1LIG    C21   29  -1.312   0.420  -1.470
    1LIG     N4   30  -1.129   0.152  -1.299
    1LIG    C22   31  -1.026   0.079  -1.351
    1LIG     O3   32  -1.025  -0.042  -1.330
    1LIG    C23   33  -0.918   0.142  -1.435
    1LIG     H2   34  -1.193   0.089  -1.251
    1LIG    HC2   35  -0.973   0.571  -1.834
    1LIG    HC3   36  -0.990   0.673  -1.692
    1LIG     HC   37  -1.119   0.481  -1.653
    1LIG    HC4   38  -1.375   0.812  -1.691
    1LIG    HC5   39  -1.367   0.712  -1.837
    1LIG    HC6   40  -1.233   0.904  -1.874
    1LIG    HC7   41  -1.151   0.888  -1.718
    1LIG    HC1   42  -1.267   0.368  -1.786
    1LIG    HC8   43  -1.306   0.511  -1.885
    1LIG    HC9   44  -1.152   0.425  -1.909
    1LIG   HC10   45  -1.134   0.594  -2.011
    1LIG   HC11   46  -1.208   0.751  -2.050
    1LIG   HC12   47  -0.958   0.838  -2.284
    1LIG   HC13   48  -1.078   0.916  -2.178
    1LIG   HC14   49  -1.125   0.776  -2.277
    1LIG   HC15   50  -1.036   1.081  -1.984
    1LIG   HC16   51  -0.862   1.307  -1.664
    1LIG   HC17   52  -0.765   1.099  -1.568
    1LIG   HC18   53  -0.805   0.882  -1.682
    1LIG   HC19   54  -1.327   0.722  -1.481
    1LIG   HC20   55  -1.152   0.716  -1.506
    1LIG   HC21   56  -1.102   0.612  -1.289
    1LIG   HC22   57  -1.051   0.392  -1.188
    1LIG   HC23   58  -1.339   0.208  -1.441
    1LIG   HC24   59  -1.394   0.428  -1.540
    1LIG   HC25   60  -0.847   0.066  -1.466
    1LIG   HC26   61  -0.963   0.187  -1.524
    1LIG   HC27   62  -0.867   0.219  -1.377
   0.00000   0.00000   0.00000
