Giant Rising Ordinary Mutants for A Clerical Setup
   62
    1LIG      S    1  -1.864   0.684  -1.686
    1LIG     O1    2  -1.814   0.544  -1.704
    1LIG     C1    3  -1.719   0.788  -1.643
    1LIG     C2    4  -1.635   0.719  -1.533
    1LIG     C3    5  -1.716   0.711  -1.401
    1LIG     C4    6  -1.845   0.625  -1.415
    1LIG     C5    7  -1.940   0.687  -1.520
    1LIG     N1    8  -1.815   0.481  -1.449
    1LIG     H1    9  -1.902   0.427  -1.453
    1LIG     H2   10  -1.786   0.477  -1.550
    1LIG     C6   11  -1.718   0.406  -1.365
    1LIG     C7   12  -1.612   0.343  -1.450
    1LIG     C8   13  -1.477   0.358  -1.414
    1LIG     C9   14  -1.372   0.309  -1.493
    1LIG    C10   15  -1.408   0.239  -1.609
    1LIG    C11   16  -1.542   0.220  -1.645
    1LIG    C12   17  -1.644   0.272  -1.566
    1LIG    C13   18  -1.225   0.328  -1.452
    1LIG    C14   19  -1.137   0.300  -1.576
    1LIG    C15   20  -1.197   0.471  -1.402
    1LIG    C16   21  -1.181   0.233  -1.338
    1LIG     O2   22  -1.752   0.843  -1.361
    1LIG     H3   23  -1.807   0.885  -1.430
    1LIG    C17   24  -1.500   0.791  -1.511
    1LIG    C18   25  -1.386   0.735  -1.593
    1LIG    C19   26  -1.258   0.792  -1.583
    1LIG    C20   27  -1.152   0.739  -1.657
    1LIG    C21   28  -1.168   0.627  -1.739
    1LIG    C22   29  -1.297   0.574  -1.751
    1LIG      F   30  -1.319   0.470  -1.833
    1LIG    C23   31  -1.404   0.625  -1.678
    1LIG     O3   32  -1.026   0.794  -1.647
    1LIG     H4   33  -1.033   0.891  -1.645
    1LIG     N2   34  -1.063   0.584  -1.823
    1LIG     H5   35  -0.984   0.648  -1.824
    1LIG     H6   36  -1.097   0.559  -1.915
    1LIG    HC2   37  -1.657   0.801  -1.732
    1LIG    HC3   38  -1.753   0.885  -1.607
    1LIG     HC   39  -1.614   0.617  -1.566
    1LIG    HC1   40  -1.653   0.667  -1.324
    1LIG    HC4   41  -1.896   0.627  -1.319
    1LIG    HC5   42  -1.961   0.790  -1.492
    1LIG    HC6   43  -2.032   0.629  -1.521
    1LIG    HC7   44  -1.772   0.328  -1.311
    1LIG    HC8   45  -1.672   0.474  -1.294
    1LIG    HC9   46  -1.453   0.408  -1.321
    1LIG   HC10   47  -1.331   0.198  -1.673
    1LIG   HC11   48  -1.567   0.164  -1.734
    1LIG   HC12   49  -1.747   0.257  -1.594
    1LIG   HC13   50  -1.474   0.781  -1.405
    1LIG   HC14   51  -1.512   0.896  -1.535
    1LIG   HC15   52  -1.241   0.876  -1.518
    1LIG   HC16   53  -1.501   0.579  -1.686
    1LIG   HC17   54  -1.199   0.130  -1.369
    1LIG   HC18   55  -1.239   0.255  -1.248
    1LIG   HC19   56  -1.075   0.247  -1.318
    1LIG   HC20   57  -1.226   0.544  -1.478
    1LIG   HC21   58  -1.090   0.482  -1.380
    1LIG   HC22   59  -1.254   0.490  -1.311
    1LIG   HC23   60  -1.034   0.326  -1.553
    1LIG   HC24   61  -1.143   0.194  -1.600
    1LIG   HC25   62  -1.172   0.359  -1.660
   0.00000   0.00000   0.00000
