; Created by cgenff_charmm2gmx.py

[ moleculetype ]
; Name			   nrexcl
LIG				 3

[ atoms ]
;	 nr		  type	resnr residue  atom   cgnr	   charge		mass  typeB    chargeB		massB
; residue	 1 LIG rtp LIG q	qsum
     1      SG3O3      1    LIG      S      1      0.407     32.060   ;
     2      OG2P1      1    LIG     O1      2     -0.514     15.999   ;
     3      CG321      1    LIG     C1      3     -0.117     12.011   ;
     4      CG311      1    LIG     C2      4     -0.074     12.011   ;
     5      CG311      1    LIG     C3      5      0.092     12.011   ;
     6      CG314      1    LIG     C4      6     -0.011     12.011   ;
     7      CG321      1    LIG     C5      7      0.061     12.011   ;
     8      NG3P2      1    LIG     N1      8     -0.444     14.007   ;
     9       HGP2      1    LIG     H1      9      0.346      1.008   ;
    10       HGP2      1    LIG     H2     10      0.346      1.008   ;
    11      CG324      1    LIG     C6     11      0.178     12.011   ;
    12     CG2R61      1    LIG     C7     12      0.036     12.011   ;
    13     CG2R61      1    LIG     C8     13     -0.124     12.011   ;
    14     CG2R61      1    LIG     C9     14      0.084     12.011   ;
    15     CG2R61      1    LIG    C10     15     -0.121     12.011   ;
    16     CG2R61      1    LIG    C11     16     -0.108     12.011   ;
    17     CG2R61      1    LIG    C12     17     -0.119     12.011   ;
    18      CG301      1    LIG    C13     18     -0.018     12.011   ;
    19      CG331      1    LIG    C14     19     -0.289     12.011   ;
    20      CG331      1    LIG    C15     20     -0.289     12.011   ;
    21      CG331      1    LIG    C16     21     -0.289     12.011   ;
    22      OG311      1    LIG     O2     22     -0.595     15.999   ;
    23       HGP1      1    LIG     H3     23      0.422      1.008   ;
    24      CG321      1    LIG    C17     24     -0.123     12.011   ;
    25     CG2R61      1    LIG    C18     25      0.005     12.011   ;
    26     CG2R61      1    LIG    C19     26     -0.109     12.011   ;
    27     CG2R61      1    LIG    C20     27      0.026     12.011   ;
    28     CG2R61      1    LIG    C21     28      0.238     12.011   ;
    29     CG2R66      1    LIG    C22     29     -0.009     12.011   ;
    30       FGR1      1    LIG      F     30     -0.230     18.998   ;
    31     CG2R61      1    LIG    C23     31     -0.121     12.011   ;
    32      OG311      1    LIG     O3     32     -0.514     15.999   ;
    33       HGP1      1    LIG     H4     33      0.421      1.008   ;
    34      NG2S3      1    LIG     N2     34     -0.731     14.007   ;
    35       HGP4      1    LIG     H5     35      0.357      1.008   ;
    36       HGP4      1    LIG     H6     36      0.357      1.008   ;
    37       HGA2      1    LIG    HC2     37      0.090      1.008   ;
    38       HGA2      1    LIG    HC3     38      0.090      1.008   ;
    39       HGA1      1    LIG     HC     39      0.090      1.008   ;
    40       HGA1      1    LIG    HC1     40      0.090      1.008   ;
    41       HGA1      1    LIG    HC4     41      0.109      1.008   ;
    42       HGA2      1    LIG    HC5     42      0.090      1.008   ;
    43       HGA2      1    LIG    HC6     43      0.090      1.008   ;
    44       HGA2      1    LIG    HC7     44      0.090      1.008   ;
    45       HGA2      1    LIG    HC8     45      0.090      1.008   ;
    46      HGR61      1    LIG    HC9     46      0.116      1.008   ;
    47      HGR61      1    LIG   HC10     47      0.116      1.008   ;
    48      HGR61      1    LIG   HC11     48      0.116      1.008   ;
    49      HGR61      1    LIG   HC12     49      0.116      1.008   ;
    50       HGA2      1    LIG   HC13     50      0.090      1.008   ;
    51       HGA2      1    LIG   HC14     51      0.090      1.008   ;
    52      HGR61      1    LIG   HC15     52      0.116      1.008   ;
    53      HGR62      1    LIG   HC16     53      0.174      1.008   ;
    54       HGA3      1    LIG   HC17     54      0.090      1.008   ;
    55       HGA3      1    LIG   HC18     55      0.090      1.008   ;
    56       HGA3      1    LIG   HC19     56      0.090      1.008   ;
    57       HGA3      1    LIG   HC20     57      0.090      1.008   ;
    58       HGA3      1    LIG   HC21     58      0.090      1.008   ;
    59       HGA3      1    LIG   HC22     59      0.090      1.008   ;
    60       HGA3      1    LIG   HC23     60      0.090      1.008   ;
    61       HGA3      1    LIG   HC24     61      0.090      1.008   ;
    62       HGA3      1    LIG   HC25     62      0.090      1.008   ;

[ bonds ]
;	ai	  aj funct			  c0			c1			  c2			c3
    1     3	 1 ;       SG3O3      CG321
    1     2	 1 ;       SG3O3      OG2P1
    1     7	 1 ;       SG3O3      CG321
    3     4	 1 ;       CG321      CG311
    3    37	 1 ;       CG321       HGA2
    3    38	 1 ;       CG321       HGA2
    4    24	 1 ;       CG311      CG321
    4     5	 1 ;       CG311      CG311
    4    39	 1 ;       CG311       HGA1
    5    22	 1 ;       CG311      OG311
    5     6	 1 ;       CG311      CG314
    5    40	 1 ;       CG311       HGA1
    6     7	 1 ;       CG314      CG321
    6     8	 1 ;       CG314      NG3P2
    6    41	 1 ;       CG314       HGA1
    7    42	 1 ;       CG321       HGA2
    7    43	 1 ;       CG321       HGA2
    8    10	 1 ;       NG3P2       HGP2
    8    11	 1 ;       NG3P2      CG324
    8     9	 1 ;       NG3P2       HGP2
   11    12	 1 ;       CG324     CG2R61
   11    44	 1 ;       CG324       HGA2
   11    45	 1 ;       CG324       HGA2
   12    13	 1 ;      CG2R61     CG2R61
   12    17	 1 ;      CG2R61     CG2R61
   13    14	 1 ;      CG2R61     CG2R61
   13    46	 1 ;      CG2R61      HGR61
   14    18	 1 ;      CG2R61      CG301
   14    15	 1 ;      CG2R61     CG2R61
   15    16	 1 ;      CG2R61     CG2R61
   15    47	 1 ;      CG2R61      HGR61
   16    17	 1 ;      CG2R61     CG2R61
   16    48	 1 ;      CG2R61      HGR61
   17    49	 1 ;      CG2R61      HGR61
   18    19	 1 ;       CG301      CG331
   18    20	 1 ;       CG301      CG331
   18    21	 1 ;       CG301      CG331
   19    60	 1 ;       CG331       HGA3
   19    61	 1 ;       CG331       HGA3
   19    62	 1 ;       CG331       HGA3
   20    57	 1 ;       CG331       HGA3
   20    58	 1 ;       CG331       HGA3
   20    59	 1 ;       CG331       HGA3
   21    54	 1 ;       CG331       HGA3
   21    55	 1 ;       CG331       HGA3
   21    56	 1 ;       CG331       HGA3
   22    23	 1 ;       OG311       HGP1
   24    25	 1 ;       CG321     CG2R61
   24    50	 1 ;       CG321       HGA2
   24    51	 1 ;       CG321       HGA2
   25    26	 1 ;      CG2R61     CG2R61
   25    31	 1 ;      CG2R61     CG2R61
   26    27	 1 ;      CG2R61     CG2R61
   26    52	 1 ;      CG2R61      HGR61
   27    32	 1 ;      CG2R61      OG311
   27    28	 1 ;      CG2R61     CG2R61
   28    34	 1 ;      CG2R61      NG2S3
   28    29	 1 ;      CG2R61     CG2R66
   29    30	 1 ;      CG2R66       FGR1
   29    31	 1 ;      CG2R66     CG2R61
   31    53	 1 ;      CG2R61      HGR62
   32    33	 1 ;       OG311       HGP1
   34    35	 1 ;       NG2S3       HGP4
   34    36	 1 ;       NG2S3       HGP4

[ pairs ]
;	ai	  aj funct			  c0			c1			  c2			c3
    1    24	 1
    1     5	 1
    1    39	 1
    1     8	 1
    1    41	 1
    2     4	 1
    2    37	 1
    2    38	 1
    2     6	 1
    2    42	 1
    2    43	 1
    3     6	 1
    3    42	 1
    3    43	 1
    3    25	 1
    3    50	 1
    3    51	 1
    3    22	 1
    3    40	 1
    4     7	 1
    4    23	 1
    4     8	 1
    4    41	 1
    4    26	 1
    4    31	 1
    5    37	 1
    5    38	 1
    5    25	 1
    5    50	 1
    5    51	 1
    5    42	 1
    5    43	 1
    5    10	 1
    5    11	 1
    5     9	 1
    6    24	 1
    6    39	 1
    6    23	 1
    6    12	 1
    6    44	 1
    6    45	 1
    7    37	 1
    7    38	 1
    7    22	 1
    7    40	 1
    7    10	 1
    7    11	 1
    7     9	 1
    8    22	 1
    8    40	 1
    8    42	 1
    8    43	 1
    8    13	 1
    8    17	 1
    9    41	 1
    9    12	 1
    9    44	 1
    9    45	 1
   10    41	 1
   10    12	 1
   10    44	 1
   10    45	 1
   11    41	 1
   11    14	 1
   11    46	 1
   11    16	 1
   11    49	 1
   12    18	 1
   12    15	 1
   12    48	 1
   13    44	 1
   13    45	 1
   13    16	 1
   13    49	 1
   13    19	 1
   13    20	 1
   13    21	 1
   13    47	 1
   14    17	 1
   14    48	 1
   14    60	 1
   14    61	 1
   14    62	 1
   14    57	 1
   14    58	 1
   14    59	 1
   14    54	 1
   14    55	 1
   14    56	 1
   15    46	 1
   15    19	 1
   15    20	 1
   15    21	 1
   15    49	 1
   16    18	 1
   17    44	 1
   17    45	 1
   17    46	 1
   17    47	 1
   18    46	 1
   18    47	 1
   19    57	 1
   19    58	 1
   19    59	 1
   19    54	 1
   19    55	 1
   19    56	 1
   20    60	 1
   20    61	 1
   20    62	 1
   20    54	 1
   20    55	 1
   20    56	 1
   21    60	 1
   21    61	 1
   21    62	 1
   21    57	 1
   21    58	 1
   21    59	 1
   22    24	 1
   22    39	 1
   22    41	 1
   23    40	 1
   24    37	 1
   24    38	 1
   24    40	 1
   24    27	 1
   24    52	 1
   24    29	 1
   24    53	 1
   25    39	 1
   25    32	 1
   25    28	 1
   25    30	 1
   26    50	 1
   26    51	 1
   26    29	 1
   26    53	 1
   26    33	 1
   26    34	 1
   27    31	 1
   27    35	 1
   27    36	 1
   27    30	 1
   28    52	 1
   28    33	 1
   28    53	 1
   29    32	 1
   29    35	 1
   29    36	 1
   30    34	 1
   30    53	 1
   31    50	 1
   31    51	 1
   31    52	 1
   31    34	 1
   32    52	 1
   32    34	 1
   37    39	 1
   38    39	 1
   39    50	 1
   39    51	 1
   39    40	 1
   40    41	 1
   41    42	 1
   41    43	 1
   47    48	 1
   48    49	 1

[ angles ]
;	ai	  aj	ak funct			c0			  c1			c2			  c3
    3     1     2	5 ;      CG321      SG3O3      OG2P1
    3     1     7	5 ;      CG321      SG3O3      CG321
    2     1     7	5 ;      OG2P1      SG3O3      CG321
    4     3     1	5 ;      CG311      CG321      SG3O3
    4     3    37	5 ;      CG311      CG321       HGA2
    4     3    38	5 ;      CG311      CG321       HGA2
    1     3    37	5 ;      SG3O3      CG321       HGA2
    1     3    38	5 ;      SG3O3      CG321       HGA2
   37     3    38	5 ;       HGA2      CG321       HGA2
   24     4     3	5 ;      CG321      CG311      CG321
   24     4     5	5 ;      CG321      CG311      CG311
   24     4    39	5 ;      CG321      CG311       HGA1
    3     4     5	5 ;      CG321      CG311      CG311
    3     4    39	5 ;      CG321      CG311       HGA1
    5     4    39	5 ;      CG311      CG311       HGA1
    4     5    22	5 ;      CG311      CG311      OG311
    4     5     6	5 ;      CG311      CG311      CG314
    4     5    40	5 ;      CG311      CG311       HGA1
   22     5     6	5 ;      OG311      CG311      CG314
   22     5    40	5 ;      OG311      CG311       HGA1
    6     5    40	5 ;      CG314      CG311       HGA1
    5     6     7	5 ;      CG311      CG314      CG321
    5     6     8	5 ;      CG311      CG314      NG3P2
    5     6    41	5 ;      CG311      CG314       HGA1
    7     6     8	5 ;      CG321      CG314      NG3P2
    7     6    41	5 ;      CG321      CG314       HGA1
    8     6    41	5 ;      NG3P2      CG314       HGA1
    1     7     6	5 ;      SG3O3      CG321      CG314
    1     7    42	5 ;      SG3O3      CG321       HGA2
    1     7    43	5 ;      SG3O3      CG321       HGA2
    6     7    42	5 ;      CG314      CG321       HGA2
    6     7    43	5 ;      CG314      CG321       HGA2
   42     7    43	5 ;       HGA2      CG321       HGA2
   10     8     6	5 ;       HGP2      NG3P2      CG314
   10     8    11	5 ;       HGP2      NG3P2      CG324
   10     8     9	5 ;       HGP2      NG3P2       HGP2
    6     8    11	5 ;      CG314      NG3P2      CG324
    6     8     9	5 ;      CG314      NG3P2       HGP2
   11     8     9	5 ;      CG324      NG3P2       HGP2
   12    11     8	5 ;     CG2R61      CG324      NG3P2
   12    11    44	5 ;     CG2R61      CG324       HGA2
   12    11    45	5 ;     CG2R61      CG324       HGA2
    8    11    44	5 ;      NG3P2      CG324       HGA2
    8    11    45	5 ;      NG3P2      CG324       HGA2
   44    11    45	5 ;       HGA2      CG324       HGA2
   13    12    17	5 ;     CG2R61     CG2R61     CG2R61
   13    12    11	5 ;     CG2R61     CG2R61      CG324
   17    12    11	5 ;     CG2R61     CG2R61      CG324
   14    13    12	5 ;     CG2R61     CG2R61     CG2R61
   14    13    46	5 ;     CG2R61     CG2R61      HGR61
   12    13    46	5 ;     CG2R61     CG2R61      HGR61
   18    14    15	5 ;      CG301     CG2R61     CG2R61
   18    14    13	5 ;      CG301     CG2R61     CG2R61
   15    14    13	5 ;     CG2R61     CG2R61     CG2R61
   14    15    16	5 ;     CG2R61     CG2R61     CG2R61
   14    15    47	5 ;     CG2R61     CG2R61      HGR61
   16    15    47	5 ;     CG2R61     CG2R61      HGR61
   15    16    17	5 ;     CG2R61     CG2R61     CG2R61
   15    16    48	5 ;     CG2R61     CG2R61      HGR61
   17    16    48	5 ;     CG2R61     CG2R61      HGR61
   16    17    12	5 ;     CG2R61     CG2R61     CG2R61
   16    17    49	5 ;     CG2R61     CG2R61      HGR61
   12    17    49	5 ;     CG2R61     CG2R61      HGR61
   19    18    20	5 ;      CG331      CG301      CG331
   19    18    14	5 ;      CG331      CG301     CG2R61
   19    18    21	5 ;      CG331      CG301      CG331
   20    18    14	5 ;      CG331      CG301     CG2R61
   20    18    21	5 ;      CG331      CG301      CG331
   14    18    21	5 ;     CG2R61      CG301      CG331
   18    19    60	5 ;      CG301      CG331       HGA3
   18    19    61	5 ;      CG301      CG331       HGA3
   18    19    62	5 ;      CG301      CG331       HGA3
   60    19    61	5 ;       HGA3      CG331       HGA3
   60    19    62	5 ;       HGA3      CG331       HGA3
   61    19    62	5 ;       HGA3      CG331       HGA3
   18    20    57	5 ;      CG301      CG331       HGA3
   18    20    58	5 ;      CG301      CG331       HGA3
   18    20    59	5 ;      CG301      CG331       HGA3
   57    20    58	5 ;       HGA3      CG331       HGA3
   57    20    59	5 ;       HGA3      CG331       HGA3
   58    20    59	5 ;       HGA3      CG331       HGA3
   18    21    54	5 ;      CG301      CG331       HGA3
   18    21    55	5 ;      CG301      CG331       HGA3
   18    21    56	5 ;      CG301      CG331       HGA3
   54    21    55	5 ;       HGA3      CG331       HGA3
   54    21    56	5 ;       HGA3      CG331       HGA3
   55    21    56	5 ;       HGA3      CG331       HGA3
   23    22     5	5 ;       HGP1      OG311      CG311
   25    24     4	5 ;     CG2R61      CG321      CG311
   25    24    50	5 ;     CG2R61      CG321       HGA2
   25    24    51	5 ;     CG2R61      CG321       HGA2
    4    24    50	5 ;      CG311      CG321       HGA2
    4    24    51	5 ;      CG311      CG321       HGA2
   50    24    51	5 ;       HGA2      CG321       HGA2
   26    25    31	5 ;     CG2R61     CG2R61     CG2R61
   26    25    24	5 ;     CG2R61     CG2R61      CG321
   31    25    24	5 ;     CG2R61     CG2R61      CG321
   27    26    25	5 ;     CG2R61     CG2R61     CG2R61
   27    26    52	5 ;     CG2R61     CG2R61      HGR61
   25    26    52	5 ;     CG2R61     CG2R61      HGR61
   32    27    28	5 ;      OG311     CG2R61     CG2R61
   32    27    26	5 ;      OG311     CG2R61     CG2R61
   28    27    26	5 ;     CG2R61     CG2R61     CG2R61
   34    28    27	5 ;      NG2S3     CG2R61     CG2R61
   34    28    29	5 ;      NG2S3     CG2R61     CG2R66
   27    28    29	5 ;     CG2R61     CG2R61     CG2R66
   28    29    30	5 ;     CG2R61     CG2R66       FGR1
   28    29    31	5 ;     CG2R61     CG2R66     CG2R61
   30    29    31	5 ;       FGR1     CG2R66     CG2R61
   29    31    25	5 ;     CG2R66     CG2R61     CG2R61
   29    31    53	5 ;     CG2R66     CG2R61      HGR62
   25    31    53	5 ;     CG2R61     CG2R61      HGR62
   33    32    27	5 ;       HGP1      OG311     CG2R61
   35    34    36	5 ;       HGP4      NG2S3       HGP4
   35    34    28	5 ;       HGP4      NG2S3     CG2R61
   36    34    28	5 ;       HGP4      NG2S3     CG2R61

[ dihedrals ]
;	ai	  aj	ak	  al funct			  c0			c1			  c2			c3			  c4			c5
    2     1     3     4	 9 ;      OG2P1      SG3O3      CG321      CG311
    2     1     3    37	 9 ;      OG2P1      SG3O3      CG321       HGA2
    2     1     3    38	 9 ;      OG2P1      SG3O3      CG321       HGA2
    7     1     3     4	 9 ;      CG321      SG3O3      CG321      CG311
    7     1     3    37	 9 ;      CG321      SG3O3      CG321       HGA2
    7     1     3    38	 9 ;      CG321      SG3O3      CG321       HGA2
    3     1     7     6	 9 ;      CG321      SG3O3      CG321      CG314
    3     1     7    42	 9 ;      CG321      SG3O3      CG321       HGA2
    3     1     7    43	 9 ;      CG321      SG3O3      CG321       HGA2
    2     1     7     6	 9 ;      OG2P1      SG3O3      CG321      CG314
    2     1     7    42	 9 ;      OG2P1      SG3O3      CG321       HGA2
    2     1     7    43	 9 ;      OG2P1      SG3O3      CG321       HGA2
    1     3     4    24	 9 ;      SG3O3      CG321      CG311      CG321
    1     3     4     5	 9 ;      SG3O3      CG321      CG311      CG311
    1     3     4    39	 9 ;      SG3O3      CG321      CG311       HGA1
   37     3     4    24	 9 ;       HGA2      CG321      CG311      CG321
   37     3     4     5	 9 ;       HGA2      CG321      CG311      CG311
   37     3     4    39	 9 ;       HGA2      CG321      CG311       HGA1
   38     3     4    24	 9 ;       HGA2      CG321      CG311      CG321
   38     3     4     5	 9 ;       HGA2      CG321      CG311      CG311
   38     3     4    39	 9 ;       HGA2      CG321      CG311       HGA1
    3     4    24    25	 9 ;      CG321      CG311      CG321     CG2R61
    3     4    24    50	 9 ;      CG321      CG311      CG321       HGA2
    3     4    24    51	 9 ;      CG321      CG311      CG321       HGA2
    5     4    24    25	 9 ;      CG311      CG311      CG321     CG2R61
    5     4    24    50	 9 ;      CG311      CG311      CG321       HGA2
    5     4    24    51	 9 ;      CG311      CG311      CG321       HGA2
   39     4    24    25	 9 ;       HGA1      CG311      CG321     CG2R61
   39     4    24    50	 9 ;       HGA1      CG311      CG321       HGA2
   39     4    24    51	 9 ;       HGA1      CG311      CG321       HGA2
   24     4     5    22	 9 ;      CG321      CG311      CG311      OG311
   24     4     5     6	 9 ;      CG321      CG311      CG311      CG314
   24     4     5    40	 9 ;      CG321      CG311      CG311       HGA1
    3     4     5    22	 9 ;      CG321      CG311      CG311      OG311
    3     4     5     6	 9 ;      CG321      CG311      CG311      CG314
    3     4     5    40	 9 ;      CG321      CG311      CG311       HGA1
   39     4     5    22	 9 ;       HGA1      CG311      CG311      OG311
   39     4     5     6	 9 ;       HGA1      CG311      CG311      CG314
   39     4     5    40	 9 ;       HGA1      CG311      CG311       HGA1
    4     5    22    23	 9 ;      CG311      CG311      OG311       HGP1
    6     5    22    23	 9 ;      CG314      CG311      OG311       HGP1
   40     5    22    23	 9 ;       HGA1      CG311      OG311       HGP1
    4     5     6     7	 9 ;      CG311      CG311      CG314      CG321
    4     5     6     8	 9 ;      CG311      CG311      CG314      NG3P2
    4     5     6    41	 9 ;      CG311      CG311      CG314       HGA1
   22     5     6     7	 9 ;      OG311      CG311      CG314      CG321
   22     5     6     8	 9 ;      OG311      CG311      CG314      NG3P2
   22     5     6    41	 9 ;      OG311      CG311      CG314       HGA1
   40     5     6     7	 9 ;       HGA1      CG311      CG314      CG321
   40     5     6     8	 9 ;       HGA1      CG311      CG314      NG3P2
   40     5     6    41	 9 ;       HGA1      CG311      CG314       HGA1
    5     6     7     1	 9 ;      CG311      CG314      CG321      SG3O3
    5     6     7    42	 9 ;      CG311      CG314      CG321       HGA2
    5     6     7    43	 9 ;      CG311      CG314      CG321       HGA2
    8     6     7     1	 9 ;      NG3P2      CG314      CG321      SG3O3
    8     6     7    42	 9 ;      NG3P2      CG314      CG321       HGA2
    8     6     7    43	 9 ;      NG3P2      CG314      CG321       HGA2
   41     6     7     1	 9 ;       HGA1      CG314      CG321      SG3O3
   41     6     7    42	 9 ;       HGA1      CG314      CG321       HGA2
   41     6     7    43	 9 ;       HGA1      CG314      CG321       HGA2
    5     6     8    10	 9 ;      CG311      CG314      NG3P2       HGP2
    5     6     8    11	 9 ;      CG311      CG314      NG3P2      CG324
    5     6     8     9	 9 ;      CG311      CG314      NG3P2       HGP2
    7     6     8    10	 9 ;      CG321      CG314      NG3P2       HGP2
    7     6     8    11	 9 ;      CG321      CG314      NG3P2      CG324
    7     6     8     9	 9 ;      CG321      CG314      NG3P2       HGP2
   41     6     8    10	 9 ;       HGA1      CG314      NG3P2       HGP2
   41     6     8    11	 9 ;       HGA1      CG314      NG3P2      CG324
   41     6     8     9	 9 ;       HGA1      CG314      NG3P2       HGP2
   10     8    11    12	 9 ;       HGP2      NG3P2      CG324     CG2R61
   10     8    11    44	 9 ;       HGP2      NG3P2      CG324       HGA2
   10     8    11    45	 9 ;       HGP2      NG3P2      CG324       HGA2
    6     8    11    12	 9 ;      CG314      NG3P2      CG324     CG2R61
    6     8    11    44	 9 ;      CG314      NG3P2      CG324       HGA2
    6     8    11    45	 9 ;      CG314      NG3P2      CG324       HGA2
    9     8    11    12	 9 ;       HGP2      NG3P2      CG324     CG2R61
    9     8    11    44	 9 ;       HGP2      NG3P2      CG324       HGA2
    9     8    11    45	 9 ;       HGP2      NG3P2      CG324       HGA2
    8    11    12    13	 9 ;      NG3P2      CG324     CG2R61     CG2R61
    8    11    12    17	 9 ;      NG3P2      CG324     CG2R61     CG2R61
   44    11    12    13	 9 ;       HGA2      CG324     CG2R61     CG2R61
   44    11    12    17	 9 ;       HGA2      CG324     CG2R61     CG2R61
   45    11    12    13	 9 ;       HGA2      CG324     CG2R61     CG2R61
   45    11    12    17	 9 ;       HGA2      CG324     CG2R61     CG2R61
   17    12    13    14	 9 ;     CG2R61     CG2R61     CG2R61     CG2R61
   17    12    13    46	 9 ;     CG2R61     CG2R61     CG2R61      HGR61
   11    12    13    14	 9 ;      CG324     CG2R61     CG2R61     CG2R61
   11    12    13    46	 9 ;      CG324     CG2R61     CG2R61      HGR61
   13    12    17    16	 9 ;     CG2R61     CG2R61     CG2R61     CG2R61
   13    12    17    49	 9 ;     CG2R61     CG2R61     CG2R61      HGR61
   11    12    17    16	 9 ;      CG324     CG2R61     CG2R61     CG2R61
   11    12    17    49	 9 ;      CG324     CG2R61     CG2R61      HGR61
   12    13    14    18	 9 ;     CG2R61     CG2R61     CG2R61      CG301
   12    13    14    15	 9 ;     CG2R61     CG2R61     CG2R61     CG2R61
   46    13    14    18	 9 ;      HGR61     CG2R61     CG2R61      CG301
   46    13    14    15	 9 ;      HGR61     CG2R61     CG2R61     CG2R61
   15    14    18    19	 9 ;     CG2R61     CG2R61      CG301      CG331
   15    14    18    20	 9 ;     CG2R61     CG2R61      CG301      CG331
   15    14    18    21	 9 ;     CG2R61     CG2R61      CG301      CG331
   13    14    18    19	 9 ;     CG2R61     CG2R61      CG301      CG331
   13    14    18    20	 9 ;     CG2R61     CG2R61      CG301      CG331
   13    14    18    21	 9 ;     CG2R61     CG2R61      CG301      CG331
   18    14    15    16	 9 ;      CG301     CG2R61     CG2R61     CG2R61
   18    14    15    47	 9 ;      CG301     CG2R61     CG2R61      HGR61
   13    14    15    16	 9 ;     CG2R61     CG2R61     CG2R61     CG2R61
   13    14    15    47	 9 ;     CG2R61     CG2R61     CG2R61      HGR61
   14    15    16    17	 9 ;     CG2R61     CG2R61     CG2R61     CG2R61
   14    15    16    48	 9 ;     CG2R61     CG2R61     CG2R61      HGR61
   47    15    16    17	 9 ;      HGR61     CG2R61     CG2R61     CG2R61
   47    15    16    48	 9 ;      HGR61     CG2R61     CG2R61      HGR61
   15    16    17    12	 9 ;     CG2R61     CG2R61     CG2R61     CG2R61
   15    16    17    49	 9 ;     CG2R61     CG2R61     CG2R61      HGR61
   48    16    17    12	 9 ;      HGR61     CG2R61     CG2R61     CG2R61
   48    16    17    49	 9 ;      HGR61     CG2R61     CG2R61      HGR61
   20    18    19    60	 9 ;      CG331      CG301      CG331       HGA3
   20    18    19    61	 9 ;      CG331      CG301      CG331       HGA3
   20    18    19    62	 9 ;      CG331      CG301      CG331       HGA3
   14    18    19    60	 9 ;     CG2R61      CG301      CG331       HGA3
   14    18    19    61	 9 ;     CG2R61      CG301      CG331       HGA3
   14    18    19    62	 9 ;     CG2R61      CG301      CG331       HGA3
   21    18    19    60	 9 ;      CG331      CG301      CG331       HGA3
   21    18    19    61	 9 ;      CG331      CG301      CG331       HGA3
   21    18    19    62	 9 ;      CG331      CG301      CG331       HGA3
   19    18    20    57	 9 ;      CG331      CG301      CG331       HGA3
   19    18    20    58	 9 ;      CG331      CG301      CG331       HGA3
   19    18    20    59	 9 ;      CG331      CG301      CG331       HGA3
   14    18    20    57	 9 ;     CG2R61      CG301      CG331       HGA3
   14    18    20    58	 9 ;     CG2R61      CG301      CG331       HGA3
   14    18    20    59	 9 ;     CG2R61      CG301      CG331       HGA3
   21    18    20    57	 9 ;      CG331      CG301      CG331       HGA3
   21    18    20    58	 9 ;      CG331      CG301      CG331       HGA3
   21    18    20    59	 9 ;      CG331      CG301      CG331       HGA3
   19    18    21    54	 9 ;      CG331      CG301      CG331       HGA3
   19    18    21    55	 9 ;      CG331      CG301      CG331       HGA3
   19    18    21    56	 9 ;      CG331      CG301      CG331       HGA3
   20    18    21    54	 9 ;      CG331      CG301      CG331       HGA3
   20    18    21    55	 9 ;      CG331      CG301      CG331       HGA3
   20    18    21    56	 9 ;      CG331      CG301      CG331       HGA3
   14    18    21    54	 9 ;     CG2R61      CG301      CG331       HGA3
   14    18    21    55	 9 ;     CG2R61      CG301      CG331       HGA3
   14    18    21    56	 9 ;     CG2R61      CG301      CG331       HGA3
    4    24    25    26	 9 ;      CG311      CG321     CG2R61     CG2R61
    4    24    25    31	 9 ;      CG311      CG321     CG2R61     CG2R61
   50    24    25    26	 9 ;       HGA2      CG321     CG2R61     CG2R61
   50    24    25    31	 9 ;       HGA2      CG321     CG2R61     CG2R61
   51    24    25    26	 9 ;       HGA2      CG321     CG2R61     CG2R61
   51    24    25    31	 9 ;       HGA2      CG321     CG2R61     CG2R61
   31    25    26    27	 9 ;     CG2R61     CG2R61     CG2R61     CG2R61
   31    25    26    52	 9 ;     CG2R61     CG2R61     CG2R61      HGR61
   24    25    26    27	 9 ;      CG321     CG2R61     CG2R61     CG2R61
   24    25    26    52	 9 ;      CG321     CG2R61     CG2R61      HGR61
   26    25    31    29	 9 ;     CG2R61     CG2R61     CG2R61     CG2R66
   26    25    31    53	 9 ;     CG2R61     CG2R61     CG2R61      HGR62
   24    25    31    29	 9 ;      CG321     CG2R61     CG2R61     CG2R66
   24    25    31    53	 9 ;      CG321     CG2R61     CG2R61      HGR62
   25    26    27    32	 9 ;     CG2R61     CG2R61     CG2R61      OG311
   25    26    27    28	 9 ;     CG2R61     CG2R61     CG2R61     CG2R61
   52    26    27    32	 9 ;      HGR61     CG2R61     CG2R61      OG311
   52    26    27    28	 9 ;      HGR61     CG2R61     CG2R61     CG2R61
   28    27    32    33	 9 ;     CG2R61     CG2R61      OG311       HGP1
   26    27    32    33	 9 ;     CG2R61     CG2R61      OG311       HGP1
   32    27    28    34	 9 ;      OG311     CG2R61     CG2R61      NG2S3
   32    27    28    29	 9 ;      OG311     CG2R61     CG2R61     CG2R66
   26    27    28    34	 9 ;     CG2R61     CG2R61     CG2R61      NG2S3
   26    27    28    29	 9 ;     CG2R61     CG2R61     CG2R61     CG2R66
   27    28    34    35	 9 ;     CG2R61     CG2R61      NG2S3       HGP4
   27    28    34    36	 9 ;     CG2R61     CG2R61      NG2S3       HGP4
   29    28    34    35	 9 ;     CG2R66     CG2R61      NG2S3       HGP4
   29    28    34    36	 9 ;     CG2R66     CG2R61      NG2S3       HGP4
   34    28    29    30	 9 ;      NG2S3     CG2R61     CG2R66       FGR1
   34    28    29    31	 9 ;      NG2S3     CG2R61     CG2R66     CG2R61
   27    28    29    30	 9 ;     CG2R61     CG2R61     CG2R66       FGR1
   27    28    29    31	 9 ;     CG2R61     CG2R61     CG2R66     CG2R61
   28    29    31    25	 9 ;     CG2R61     CG2R66     CG2R61     CG2R61
   28    29    31    53	 9 ;     CG2R61     CG2R66     CG2R61      HGR62
   30    29    31    25	 9 ;       FGR1     CG2R66     CG2R61     CG2R61
   30    29    31    53	 9 ;       FGR1     CG2R66     CG2R61      HGR62

[ dihedrals ]
;	ai	  aj	ak	  al funct			  c0			c1			  c2			c3
   34    35    36    28	 2

