Gromacs Runs One Microsecond At Cannonball Speeds
   30
    1LIG     CL    1  -0.942  -0.131  -1.578
    1LIG     C1    2  -1.031   0.008  -1.626
    1LIG     C2    3  -1.099   0.007  -1.749
    1LIG     C3    4  -1.173   0.121  -1.784
    1LIG     N1    5  -1.250   0.142  -1.895
    1LIG     HN    6  -1.265   0.079  -1.974
    1LIG     C4    7  -1.302   0.261  -1.880
    1LIG     N2    8  -1.256   0.322  -1.765
    1LIG     C5    9  -1.175   0.232  -1.699
    1LIG     C6   10  -1.107   0.234  -1.577
    1LIG     C7   11  -1.036   0.119  -1.541
    1LIG     C8   12  -1.292   0.454  -1.717
    1LIG     C9   13  -1.189   0.563  -1.748
    1LIG    C10   14  -1.250   0.693  -1.798
    1LIG      O   15  -1.149   0.775  -1.857
    1LIG     H1   16  -1.069   0.768  -1.801
    1LIG     N3   17  -1.390   0.320  -1.963
    1LIG     H2   18  -1.348   0.381  -2.033
    1LIG     H3   19  -1.477   0.359  -1.927
    1LIG     H4   20  -1.094  -0.075  -1.811
    1LIG     H5   21  -1.373   0.287  -1.956
    1LIG     H6   22  -1.110   0.317  -1.515
    1LIG     H7   23  -0.986   0.116  -1.451
    1LIG     H8   24  -1.304   0.448  -1.610
    1LIG     H9   25  -1.382   0.481  -1.767
    1LIG    H10   26  -1.134   0.584  -1.658
    1LIG    H11   27  -1.127   0.525  -1.826
    1LIG    H12   28  -1.324   0.672  -1.872
    1LIG    H13   29  -1.293   0.746  -1.716
    1LIG    LP1   30  -0.858  -0.264  -1.533
   0.00000   0.00000   0.00000
