; Created by cgenff_charmm2gmx.py

[ moleculetype ]
; Name			   nrexcl
LIG				 3

[ atoms ]
;	 nr		  type	resnr residue  atom   cgnr	   charge		mass  typeB    chargeB		massB
; residue	 1 LIG rtp LIG q	qsum
     1      CLGR1      1    LIG     CL      1     -0.200     35.453   ;
     2     CG2R61      1    LIG     C1      2      0.001     12.011   ;
     3     CG2R61      1    LIG     C2      3     -0.130     12.011   ;
     4     CG2RC0      1    LIG     C3      4      0.202     12.011   ;
     5     NG3C51      1    LIG     N1      5     -0.464     14.007   ;
     6       HGP1      1    LIG     HN      6      0.254      1.008   ;
     7     CG3C51      1    LIG     C4      7      0.125     12.011   ;
     8     NG3C51      1    LIG     N2      8     -0.675     14.007   ;
     9     CG2RC0      1    LIG     C5      9      0.376     12.011   ;
    10     CG2R61      1    LIG     C6     10     -0.335     12.011   ;
    11     CG2R61      1    LIG     C7     11     -0.178     12.011   ;
    12      CG321      1    LIG     C8     12      0.156     12.011   ;
    13      CG321      1    LIG     C9     13     -0.206     12.011   ;
    14      CG321      1    LIG    C10     14      0.057     12.011   ;
    15      OG311      1    LIG      O     15     -0.648     15.999   ;
    16       HGP1      1    LIG     H1     16      0.417      1.008   ;
    17      NG321      1    LIG     N3     17     -0.826     14.007   ;
    18     HGPAM2      1    LIG     H2     18      0.349      1.008   ;
    19     HGPAM2      1    LIG     H3     19      0.349      1.008   ;
    20      HGR62      1    LIG     H4     20      0.223      1.008   ;
    21       HGA1      1    LIG     H5     21      0.161      1.008   ;
    22      HGR61      1    LIG     H6     22      0.207      1.008   ;
    23      HGR62      1    LIG     H7     23      0.195      1.008   ;
    24       HGA2      1    LIG     H8     24      0.090      1.008   ;
    25       HGA2      1    LIG     H9     25      0.090      1.008   ;
    26       HGA2      1    LIG    H10     26      0.090      1.008   ;
    27       HGA2      1    LIG    H11     27      0.090      1.008   ;
    28       HGA2      1    LIG    H12     28      0.090      1.008   ;
    29       HGA2      1    LIG    H13     29      0.090      1.008   ;
    30        LPH      1    LIG    LP1     30      0.050      0.000   ;

[ bonds ]
;	ai	  aj funct			  c0			c1			  c2			c3
    1     2	 1 ;       CLGR1     CG2R61
    2     3	 1 ;      CG2R61     CG2R61
    2    11	 1 ;      CG2R61     CG2R61
    3     4	 1 ;      CG2R61     CG2RC0
    3    20	 1 ;      CG2R61      HGR62
    4     5	 1 ;      CG2RC0     NG3C51
    4     9	 1 ;      CG2RC0     CG2RC0
    5     6	 1 ;      NG3C51       HGP1
    5     7	 1 ;      NG3C51     CG3C51
    7    17	 1 ;      CG3C51      NG321
    7     8	 1 ;      CG3C51     NG3C51
    7    21	 1 ;      CG3C51       HGA1
    8    12	 1 ;      NG3C51      CG321
    8     9	 1 ;      NG3C51     CG2RC0
    9    10	 1 ;      CG2RC0     CG2R61
   10    11	 1 ;      CG2R61     CG2R61
   10    22	 1 ;      CG2R61      HGR61
   11    23	 1 ;      CG2R61      HGR62
   12    13	 1 ;       CG321      CG321
   12    24	 1 ;       CG321       HGA2
   12    25	 1 ;       CG321       HGA2
   13    14	 1 ;       CG321      CG321
   13    26	 1 ;       CG321       HGA2
   13    27	 1 ;       CG321       HGA2
   14    15	 1 ;       CG321      OG311
   14    28	 1 ;       CG321       HGA2
   14    29	 1 ;       CG321       HGA2
   15    16	 1 ;       OG311       HGP1
   17    18	 1 ;       NG321     HGPAM2
   17    19	 1 ;       NG321     HGPAM2

[ pairs ]
;	ai	  aj funct			  c0			c1			  c2			c3
    1     4	 1
   30     4	 1
    1    20	 1
   30    20	 1
    1    10	 1
   30    10	 1
    1    23	 1
   30    23	 1
    2     5	 1
    2     9	 1
    2    22	 1
    3    10	 1
    3    23	 1
    3     6	 1
    3     7	 1
    3     8	 1
    4    11	 1
    4    17	 1
    4    21	 1
    4    12	 1
    4    22	 1
    5    20	 1
    5    10	 1
    5    18	 1
    5    19	 1
    5    12	 1
    6     9	 1
    6    17	 1
    6     8	 1
    6    21	 1
    7    13	 1
    7    24	 1
    7    25	 1
    7    10	 1
    8    18	 1
    8    19	 1
    8    11	 1
    8    22	 1
    8    14	 1
    8    26	 1
    8    27	 1
    9    20	 1
    9    17	 1
    9    21	 1
    9    13	 1
    9    24	 1
    9    25	 1
    9    23	 1
   10    12	 1
   11    20	 1
   12    17	 1
   12    21	 1
   12    15	 1
   12    28	 1
   12    29	 1
   13    16	 1
   14    24	 1
   14    25	 1
   15    26	 1
   15    27	 1
   16    28	 1
   16    29	 1
   18    21	 1
   19    21	 1
   22    23	 1
   24    26	 1
   24    27	 1
   25    26	 1
   25    27	 1
   26    28	 1
   26    29	 1
   27    28	 1
   27    29	 1

[ angles ]
;	ai	  aj	ak funct			c0			  c1			c2			  c3
    3     2     1	5 ;     CG2R61     CG2R61      CLGR1
    3     2    11	5 ;     CG2R61     CG2R61     CG2R61
    1     2    11	5 ;      CLGR1     CG2R61     CG2R61
    4     3     2	5 ;     CG2RC0     CG2R61     CG2R61
    4     3    20	5 ;     CG2RC0     CG2R61      HGR62
    2     3    20	5 ;     CG2R61     CG2R61      HGR62
    5     4     3	5 ;     NG3C51     CG2RC0     CG2R61
    5     4     9	5 ;     NG3C51     CG2RC0     CG2RC0
    3     4     9	5 ;     CG2R61     CG2RC0     CG2RC0
    6     5     7	5 ;       HGP1     NG3C51     CG3C51
    6     5     4	5 ;       HGP1     NG3C51     CG2RC0
    7     5     4	5 ;     CG3C51     NG3C51     CG2RC0
   17     7     5	5 ;      NG321     CG3C51     NG3C51
   17     7     8	5 ;      NG321     CG3C51     NG3C51
   17     7    21	5 ;      NG321     CG3C51       HGA1
    5     7     8	5 ;     NG3C51     CG3C51     NG3C51
    5     7    21	5 ;     NG3C51     CG3C51       HGA1
    8     7    21	5 ;     NG3C51     CG3C51       HGA1
    7     8    12	5 ;     CG3C51     NG3C51      CG321
    7     8     9	5 ;     CG3C51     NG3C51     CG2RC0
   12     8     9	5 ;      CG321     NG3C51     CG2RC0
    4     9     8	5 ;     CG2RC0     CG2RC0     NG3C51
    4     9    10	5 ;     CG2RC0     CG2RC0     CG2R61
    8     9    10	5 ;     NG3C51     CG2RC0     CG2R61
    9    10    11	5 ;     CG2RC0     CG2R61     CG2R61
    9    10    22	5 ;     CG2RC0     CG2R61      HGR61
   11    10    22	5 ;     CG2R61     CG2R61      HGR61
    2    11    10	5 ;     CG2R61     CG2R61     CG2R61
    2    11    23	5 ;     CG2R61     CG2R61      HGR62
   10    11    23	5 ;     CG2R61     CG2R61      HGR62
    8    12    13	5 ;     NG3C51      CG321      CG321
    8    12    24	5 ;     NG3C51      CG321       HGA2
    8    12    25	5 ;     NG3C51      CG321       HGA2
   13    12    24	5 ;      CG321      CG321       HGA2
   13    12    25	5 ;      CG321      CG321       HGA2
   24    12    25	5 ;       HGA2      CG321       HGA2
   14    13    12	5 ;      CG321      CG321      CG321
   14    13    26	5 ;      CG321      CG321       HGA2
   14    13    27	5 ;      CG321      CG321       HGA2
   12    13    26	5 ;      CG321      CG321       HGA2
   12    13    27	5 ;      CG321      CG321       HGA2
   26    13    27	5 ;       HGA2      CG321       HGA2
   15    14    13	5 ;      OG311      CG321      CG321
   15    14    28	5 ;      OG311      CG321       HGA2
   15    14    29	5 ;      OG311      CG321       HGA2
   13    14    28	5 ;      CG321      CG321       HGA2
   13    14    29	5 ;      CG321      CG321       HGA2
   28    14    29	5 ;       HGA2      CG321       HGA2
   16    15    14	5 ;       HGP1      OG311      CG321
   18    17    19	5 ;     HGPAM2      NG321     HGPAM2
   18    17     7	5 ;     HGPAM2      NG321     CG3C51
   19    17     7	5 ;     HGPAM2      NG321     CG3C51

[ dihedrals ]
;	ai	  aj	ak	  al funct			  c0			c1			  c2			c3			  c4			c5
    1     2     3     4	 9 ;      CLGR1     CG2R61     CG2R61     CG2RC0
    1     2     3    20	 9 ;      CLGR1     CG2R61     CG2R61      HGR62
   11     2     3     4	 9 ;     CG2R61     CG2R61     CG2R61     CG2RC0
   11     2     3    20	 9 ;     CG2R61     CG2R61     CG2R61      HGR62
    3     2    11    10	 9 ;     CG2R61     CG2R61     CG2R61     CG2R61
    3     2    11    23	 9 ;     CG2R61     CG2R61     CG2R61      HGR62
    1     2    11    10	 9 ;      CLGR1     CG2R61     CG2R61     CG2R61
    1     2    11    23	 9 ;      CLGR1     CG2R61     CG2R61      HGR62
    2     3     4     5	 9 ;     CG2R61     CG2R61     CG2RC0     NG3C51
    2     3     4     9	 9 ;     CG2R61     CG2R61     CG2RC0     CG2RC0
   20     3     4     5	 9 ;      HGR62     CG2R61     CG2RC0     NG3C51
   20     3     4     9	 9 ;      HGR62     CG2R61     CG2RC0     CG2RC0
    3     4     5     6	 9 ;     CG2R61     CG2RC0     NG3C51       HGP1
    3     4     5     7	 9 ;     CG2R61     CG2RC0     NG3C51     CG3C51
    9     4     5     6	 9 ;     CG2RC0     CG2RC0     NG3C51       HGP1
    9     4     5     7	 9 ;     CG2RC0     CG2RC0     NG3C51     CG3C51
    5     4     9     8	 9 ;     NG3C51     CG2RC0     CG2RC0     NG3C51
    5     4     9    10	 9 ;     NG3C51     CG2RC0     CG2RC0     CG2R61
    3     4     9     8	 9 ;     CG2R61     CG2RC0     CG2RC0     NG3C51
    3     4     9    10	 9 ;     CG2R61     CG2RC0     CG2RC0     CG2R61
    6     5     7    17	 9 ;       HGP1     NG3C51     CG3C51      NG321
    6     5     7     8	 9 ;       HGP1     NG3C51     CG3C51     NG3C51
    6     5     7    21	 9 ;       HGP1     NG3C51     CG3C51       HGA1
    4     5     7    17	 9 ;     CG2RC0     NG3C51     CG3C51      NG321
    4     5     7     8	 9 ;     CG2RC0     NG3C51     CG3C51     NG3C51
    4     5     7    21	 9 ;     CG2RC0     NG3C51     CG3C51       HGA1
    5     7    17    18	 9 ;     NG3C51     CG3C51      NG321     HGPAM2
    5     7    17    19	 9 ;     NG3C51     CG3C51      NG321     HGPAM2
    8     7    17    18	 9 ;     NG3C51     CG3C51      NG321     HGPAM2
    8     7    17    19	 9 ;     NG3C51     CG3C51      NG321     HGPAM2
   21     7    17    18	 9 ;       HGA1     CG3C51      NG321     HGPAM2
   21     7    17    19	 9 ;       HGA1     CG3C51      NG321     HGPAM2
   17     7     8    12	 9 ;      NG321     CG3C51     NG3C51      CG321
   17     7     8     9	 9 ;      NG321     CG3C51     NG3C51     CG2RC0
    5     7     8    12	 9 ;     NG3C51     CG3C51     NG3C51      CG321
    5     7     8     9	 9 ;     NG3C51     CG3C51     NG3C51     CG2RC0
   21     7     8    12	 9 ;       HGA1     CG3C51     NG3C51      CG321
   21     7     8     9	 9 ;       HGA1     CG3C51     NG3C51     CG2RC0
    7     8    12    13	 9 ;     CG3C51     NG3C51      CG321      CG321
    7     8    12    24	 9 ;     CG3C51     NG3C51      CG321       HGA2
    7     8    12    25	 9 ;     CG3C51     NG3C51      CG321       HGA2
    9     8    12    13	 9 ;     CG2RC0     NG3C51      CG321      CG321
    9     8    12    24	 9 ;     CG2RC0     NG3C51      CG321       HGA2
    9     8    12    25	 9 ;     CG2RC0     NG3C51      CG321       HGA2
    7     8     9     4	 9 ;     CG3C51     NG3C51     CG2RC0     CG2RC0
    7     8     9    10	 9 ;     CG3C51     NG3C51     CG2RC0     CG2R61
   12     8     9     4	 9 ;      CG321     NG3C51     CG2RC0     CG2RC0
   12     8     9    10	 9 ;      CG321     NG3C51     CG2RC0     CG2R61
    4     9    10    11	 9 ;     CG2RC0     CG2RC0     CG2R61     CG2R61
    4     9    10    22	 9 ;     CG2RC0     CG2RC0     CG2R61      HGR61
    8     9    10    11	 9 ;     NG3C51     CG2RC0     CG2R61     CG2R61
    8     9    10    22	 9 ;     NG3C51     CG2RC0     CG2R61      HGR61
    9    10    11     2	 9 ;     CG2RC0     CG2R61     CG2R61     CG2R61
    9    10    11    23	 9 ;     CG2RC0     CG2R61     CG2R61      HGR62
   22    10    11     2	 9 ;      HGR61     CG2R61     CG2R61     CG2R61
   22    10    11    23	 9 ;      HGR61     CG2R61     CG2R61      HGR62
    8    12    13    14	 9 ;     NG3C51      CG321      CG321      CG321
    8    12    13    26	 9 ;     NG3C51      CG321      CG321       HGA2
    8    12    13    27	 9 ;     NG3C51      CG321      CG321       HGA2
   24    12    13    14	 9 ;       HGA2      CG321      CG321      CG321
   24    12    13    26	 9 ;       HGA2      CG321      CG321       HGA2
   24    12    13    27	 9 ;       HGA2      CG321      CG321       HGA2
   25    12    13    14	 9 ;       HGA2      CG321      CG321      CG321
   25    12    13    26	 9 ;       HGA2      CG321      CG321       HGA2
   25    12    13    27	 9 ;       HGA2      CG321      CG321       HGA2
   12    13    14    15	 9 ;      CG321      CG321      CG321      OG311
   12    13    14    28	 9 ;      CG321      CG321      CG321       HGA2
   12    13    14    29	 9 ;      CG321      CG321      CG321       HGA2
   26    13    14    15	 9 ;       HGA2      CG321      CG321      OG311
   26    13    14    28	 9 ;       HGA2      CG321      CG321       HGA2
   26    13    14    29	 9 ;       HGA2      CG321      CG321       HGA2
   27    13    14    15	 9 ;       HGA2      CG321      CG321      OG311
   27    13    14    28	 9 ;       HGA2      CG321      CG321       HGA2
   27    13    14    29	 9 ;       HGA2      CG321      CG321       HGA2
   13    14    15    16	 9 ;      CG321      CG321      OG311       HGP1
   28    14    15    16	 9 ;       HGA2      CG321      OG311       HGP1
   29    14    15    16	 9 ;       HGA2      CG321      OG311       HGP1

[ virtual_sites2 ]
; Site   from				funct a
   30     1     2     2   -0.164

[ exclusions ]
;	ai	  aj
    1    30
   30     2
   30     3
   30    11
   30     4
   30    20
   30    10
   30    23

