; Created by cgenff_charmm2gmx.py

[ moleculetype ]
; Name			   nrexcl
LIG				 3

[ atoms ]
;	 nr		  type	resnr residue  atom   cgnr	   charge		mass  typeB    chargeB		massB
; residue	 1 LIG rtp LIG q	qsum
     1     CG2R61      1    LIG     C1      1     -0.062     12.011   ;
     2     CG2R61      1    LIG     C2      2     -0.169     12.011   ;
     3     CG2R61      1    LIG     C3      3      0.017     12.011   ;
     4     CG2R61      1    LIG     C4      4     -0.120     12.011   ;
     5     CG2R61      1    LIG     C5      5     -0.110     12.011   ;
     6     CG2R61      1    LIG     C6      6     -0.165     12.011   ;
     7     CG3RC1      1    LIG     C7      7      0.371     12.011   ;
     8      CG321      1    LIG     C8      8     -0.146     12.011   ;
     9      CG321      1    LIG     C9      9     -0.171     12.011   ;
    10      CG321      1    LIG    C10     10     -0.175     12.011   ;
    11      CG321      1    LIG    C11     11     -0.214     12.011   ;
    12     CG3RC1      1    LIG    C12     12      0.348     12.011   ;
    13     OG3C51      1    LIG      O     13     -0.645     15.999   ;
    14     CG3C51      1    LIG    C13     14      0.277     12.011   ;
    15     NG3C51      1    LIG     N1     15     -0.525     14.007   ;
    16       HGP1      1    LIG    HN1     16      0.284      1.008   ;
    17      NG321      1    LIG     N2     17     -1.079     14.007   ;
    18     HGPAM2      1    LIG     H1     18      0.454      1.008   ;
    19     HGPAM2      1    LIG     H2     19      0.454      1.008   ;
    20     CG2DC1      1    LIG    C14     20     -0.086     12.011   ;
    21      CG321      1    LIG    C15     21      0.013     12.011   ;
    22      NG311      1    LIG     N3     22     -0.656     14.007   ;
    23      CG321      1    LIG    C16     23      0.131     12.011   ;
    24     HGPAM1      1    LIG    HN2     24      0.367      1.008   ;
    25      NG311      1    LIG     N4     25     -0.598     14.007   ;
    26     CG2D1O      1    LIG    C17     26     -0.097     12.011   ;
    27     HGPAM1      1    LIG    HN3     27      0.406      1.008   ;
    28      HGR61      1    LIG     H3     28      0.119      1.008   ;
    29      HGR61      1    LIG     H4     29      0.116      1.008   ;
    30      HGR61      1    LIG     H5     30      0.116      1.008   ;
    31      HGR61      1    LIG     H6     31      0.119      1.008   ;
    32       HGA2      1    LIG     H7     32      0.090      1.008   ;
    33       HGA2      1    LIG     H8     33      0.090      1.008   ;
    34       HGA2      1    LIG     H9     34      0.090      1.008   ;
    35       HGA2      1    LIG    H10     35      0.090      1.008   ;
    36       HGA2      1    LIG    H11     36      0.090      1.008   ;
    37       HGA2      1    LIG    H12     37      0.090      1.008   ;
    38       HGA2      1    LIG    H13     38      0.090      1.008   ;
    39       HGA2      1    LIG    H14     39      0.090      1.008   ;
    40       HGA1      1    LIG    H15     40      0.090      1.008   ;
    41       HGA1      1    LIG    H16     41      0.108      1.008   ;
    42       HGA2      1    LIG    H17     42      0.090      1.008   ;
    43       HGA2      1    LIG    H18     43      0.090      1.008   ;
    44       HGA2      1    LIG    H19     44      0.090      1.008   ;
    45       HGA2      1    LIG    H20     45      0.090      1.008   ;
    46       HGA4      1    LIG    H21     46      0.148      1.008   ;

[ bonds ]
;	ai	  aj funct			  c0			c1			  c2			c3
    1     6	 1 ;      CG2R61     CG2R61
    1     2	 1 ;      CG2R61     CG2R61
    1     7	 1 ;      CG2R61     CG3RC1
    2     3	 1 ;      CG2R61     CG2R61
    2    28	 1 ;      CG2R61      HGR61
    3     4	 1 ;      CG2R61     CG2R61
    3    20	 1 ;      CG2R61     CG2DC1
    4     5	 1 ;      CG2R61     CG2R61
    4    29	 1 ;      CG2R61      HGR61
    5     6	 1 ;      CG2R61     CG2R61
    5    30	 1 ;      CG2R61      HGR61
    6    31	 1 ;      CG2R61      HGR61
    7     8	 1 ;      CG3RC1      CG321
    7    15	 1 ;      CG3RC1     NG3C51
    7    12	 1 ;      CG3RC1     CG3RC1
    8     9	 1 ;       CG321      CG321
    8    32	 1 ;       CG321       HGA2
    8    33	 1 ;       CG321       HGA2
    9    10	 1 ;       CG321      CG321
    9    34	 1 ;       CG321       HGA2
    9    35	 1 ;       CG321       HGA2
   10    11	 1 ;       CG321      CG321
   10    36	 1 ;       CG321       HGA2
   10    37	 1 ;       CG321       HGA2
   11    12	 1 ;       CG321     CG3RC1
   11    38	 1 ;       CG321       HGA2
   11    39	 1 ;       CG321       HGA2
   12    13	 1 ;      CG3RC1     OG3C51
   12    40	 1 ;      CG3RC1       HGA1
   13    14	 1 ;      OG3C51     CG3C51
   14    15	 1 ;      CG3C51     NG3C51
   14    17	 1 ;      CG3C51      NG321
   14    41	 1 ;      CG3C51       HGA1
   15    16	 1 ;      NG3C51       HGP1
   17    19	 1 ;       NG321     HGPAM2
   17    18	 1 ;       NG321     HGPAM2
   20    21	 1 ;      CG2DC1      CG321
   20    26	 1 ;      CG2DC1     CG2D1O
   21    22	 1 ;       CG321      NG311
   21    42	 1 ;       CG321       HGA2
   21    43	 1 ;       CG321       HGA2
   22    24	 1 ;       NG311     HGPAM1
   22    23	 1 ;       NG311      CG321
   23    25	 1 ;       CG321      NG311
   23    44	 1 ;       CG321       HGA2
   23    45	 1 ;       CG321       HGA2
   25    26	 1 ;       NG311     CG2D1O
   25    27	 1 ;       NG311     HGPAM1
   26    46	 1 ;      CG2D1O       HGA4

[ pairs ]
;	ai	  aj funct			  c0			c1			  c2			c3
    1     4	 1
    1    20	 1
    1    30	 1
    1     9	 1
    1    32	 1
    1    33	 1
    1    16	 1
    1    14	 1
    1    13	 1
    1    11	 1
    1    40	 1
    2     5	 1
    2    31	 1
    2     8	 1
    2    15	 1
    2    12	 1
    2    29	 1
    2    21	 1
    2    26	 1
    3     6	 1
    3     7	 1
    3    30	 1
    3    22	 1
    3    42	 1
    3    43	 1
    3    25	 1
    3    46	 1
    4    28	 1
    4    21	 1
    4    26	 1
    4    31	 1
    5     7	 1
    5    20	 1
    6    28	 1
    6     8	 1
    6    15	 1
    6    12	 1
    6    29	 1
    7    31	 1
    7    28	 1
    7    10	 1
    7    34	 1
    7    35	 1
    7    38	 1
    7    39	 1
    7    17	 1
    7    41	 1
    8    16	 1
    8    14	 1
    8    13	 1
    8    11	 1
    8    40	 1
    8    36	 1
    8    37	 1
    9    15	 1
    9    12	 1
    9    38	 1
    9    39	 1
   10    32	 1
   10    33	 1
   10    13	 1
   10    40	 1
   11    15	 1
   11    34	 1
   11    35	 1
   11    14	 1
   12    32	 1
   12    33	 1
   12    16	 1
   12    36	 1
   12    37	 1
   12    17	 1
   12    41	 1
   13    38	 1
   13    39	 1
   13    16	 1
   13    19	 1
   13    18	 1
   14    40	 1
   15    32	 1
   15    33	 1
   15    40	 1
   15    19	 1
   15    18	 1
   16    17	 1
   16    41	 1
   18    41	 1
   19    41	 1
   20    28	 1
   20    29	 1
   20    24	 1
   20    23	 1
   20    27	 1
   21    25	 1
   21    46	 1
   21    44	 1
   21    45	 1
   22    26	 1
   22    27	 1
   23    42	 1
   23    43	 1
   23    46	 1
   24    42	 1
   24    43	 1
   24    25	 1
   24    44	 1
   24    45	 1
   26    42	 1
   26    43	 1
   26    44	 1
   26    45	 1
   27    44	 1
   27    45	 1
   27    46	 1
   29    30	 1
   30    31	 1
   32    34	 1
   32    35	 1
   33    34	 1
   33    35	 1
   34    36	 1
   34    37	 1
   35    36	 1
   35    37	 1
   36    38	 1
   36    39	 1
   37    38	 1
   37    39	 1
   38    40	 1
   39    40	 1

[ angles ]
;	ai	  aj	ak funct			c0			  c1			c2			  c3
    6     1     2	5 ;     CG2R61     CG2R61     CG2R61
    6     1     7	5 ;     CG2R61     CG2R61     CG3RC1
    2     1     7	5 ;     CG2R61     CG2R61     CG3RC1
    3     2     1	5 ;     CG2R61     CG2R61     CG2R61
    3     2    28	5 ;     CG2R61     CG2R61      HGR61
    1     2    28	5 ;     CG2R61     CG2R61      HGR61
    4     3    20	5 ;     CG2R61     CG2R61     CG2DC1
    4     3     2	5 ;     CG2R61     CG2R61     CG2R61
   20     3     2	5 ;     CG2DC1     CG2R61     CG2R61
    5     4     3	5 ;     CG2R61     CG2R61     CG2R61
    5     4    29	5 ;     CG2R61     CG2R61      HGR61
    3     4    29	5 ;     CG2R61     CG2R61      HGR61
    4     5     6	5 ;     CG2R61     CG2R61     CG2R61
    4     5    30	5 ;     CG2R61     CG2R61      HGR61
    6     5    30	5 ;     CG2R61     CG2R61      HGR61
    5     6     1	5 ;     CG2R61     CG2R61     CG2R61
    5     6    31	5 ;     CG2R61     CG2R61      HGR61
    1     6    31	5 ;     CG2R61     CG2R61      HGR61
    1     7     8	5 ;     CG2R61     CG3RC1      CG321
    1     7    15	5 ;     CG2R61     CG3RC1     NG3C51
    1     7    12	5 ;     CG2R61     CG3RC1     CG3RC1
    8     7    15	5 ;      CG321     CG3RC1     NG3C51
    8     7    12	5 ;      CG321     CG3RC1     CG3RC1
   15     7    12	5 ;     NG3C51     CG3RC1     CG3RC1
    7     8     9	5 ;     CG3RC1      CG321      CG321
    7     8    32	5 ;     CG3RC1      CG321       HGA2
    7     8    33	5 ;     CG3RC1      CG321       HGA2
    9     8    32	5 ;      CG321      CG321       HGA2
    9     8    33	5 ;      CG321      CG321       HGA2
   32     8    33	5 ;       HGA2      CG321       HGA2
    8     9    10	5 ;      CG321      CG321      CG321
    8     9    34	5 ;      CG321      CG321       HGA2
    8     9    35	5 ;      CG321      CG321       HGA2
   10     9    34	5 ;      CG321      CG321       HGA2
   10     9    35	5 ;      CG321      CG321       HGA2
   34     9    35	5 ;       HGA2      CG321       HGA2
    9    10    11	5 ;      CG321      CG321      CG321
    9    10    36	5 ;      CG321      CG321       HGA2
    9    10    37	5 ;      CG321      CG321       HGA2
   11    10    36	5 ;      CG321      CG321       HGA2
   11    10    37	5 ;      CG321      CG321       HGA2
   36    10    37	5 ;       HGA2      CG321       HGA2
   12    11    10	5 ;     CG3RC1      CG321      CG321
   12    11    38	5 ;     CG3RC1      CG321       HGA2
   12    11    39	5 ;     CG3RC1      CG321       HGA2
   10    11    38	5 ;      CG321      CG321       HGA2
   10    11    39	5 ;      CG321      CG321       HGA2
   38    11    39	5 ;       HGA2      CG321       HGA2
    7    12    13	5 ;     CG3RC1     CG3RC1     OG3C51
    7    12    11	5 ;     CG3RC1     CG3RC1      CG321
    7    12    40	5 ;     CG3RC1     CG3RC1       HGA1
   13    12    11	5 ;     OG3C51     CG3RC1      CG321
   13    12    40	5 ;     OG3C51     CG3RC1       HGA1
   11    12    40	5 ;      CG321     CG3RC1       HGA1
   14    13    12	5 ;     CG3C51     OG3C51     CG3RC1
   15    14    17	5 ;     NG3C51     CG3C51      NG321
   15    14    13	5 ;     NG3C51     CG3C51     OG3C51
   15    14    41	5 ;     NG3C51     CG3C51       HGA1
   17    14    13	5 ;      NG321     CG3C51     OG3C51
   17    14    41	5 ;      NG321     CG3C51       HGA1
   13    14    41	5 ;     OG3C51     CG3C51       HGA1
   16    15     7	5 ;       HGP1     NG3C51     CG3RC1
   16    15    14	5 ;       HGP1     NG3C51     CG3C51
    7    15    14	5 ;     CG3RC1     NG3C51     CG3C51
   14    17    19	5 ;     CG3C51      NG321     HGPAM2
   14    17    18	5 ;     CG3C51      NG321     HGPAM2
   19    17    18	5 ;     HGPAM2      NG321     HGPAM2
   21    20     3	5 ;      CG321     CG2DC1     CG2R61
   21    20    26	5 ;      CG321     CG2DC1     CG2D1O
    3    20    26	5 ;     CG2R61     CG2DC1     CG2D1O
   22    21    20	5 ;      NG311      CG321     CG2DC1
   22    21    42	5 ;      NG311      CG321       HGA2
   22    21    43	5 ;      NG311      CG321       HGA2
   20    21    42	5 ;     CG2DC1      CG321       HGA2
   20    21    43	5 ;     CG2DC1      CG321       HGA2
   42    21    43	5 ;       HGA2      CG321       HGA2
   24    22    21	5 ;     HGPAM1      NG311      CG321
   24    22    23	5 ;     HGPAM1      NG311      CG321
   21    22    23	5 ;      CG321      NG311      CG321
   22    23    25	5 ;      NG311      CG321      NG311
   22    23    44	5 ;      NG311      CG321       HGA2
   22    23    45	5 ;      NG311      CG321       HGA2
   25    23    44	5 ;      NG311      CG321       HGA2
   25    23    45	5 ;      NG311      CG321       HGA2
   44    23    45	5 ;       HGA2      CG321       HGA2
   23    25    26	5 ;      CG321      NG311     CG2D1O
   23    25    27	5 ;      CG321      NG311     HGPAM1
   26    25    27	5 ;     CG2D1O      NG311     HGPAM1
   20    26    25	5 ;     CG2DC1     CG2D1O      NG311
   20    26    46	5 ;     CG2DC1     CG2D1O       HGA4
   25    26    46	5 ;      NG311     CG2D1O       HGA4

[ dihedrals ]
;	ai	  aj	ak	  al funct			  c0			c1			  c2			c3			  c4			c5
    2     1     6     5	 9 ;     CG2R61     CG2R61     CG2R61     CG2R61
    2     1     6    31	 9 ;     CG2R61     CG2R61     CG2R61      HGR61
    7     1     6     5	 9 ;     CG3RC1     CG2R61     CG2R61     CG2R61
    7     1     6    31	 9 ;     CG3RC1     CG2R61     CG2R61      HGR61
    6     1     2     3	 9 ;     CG2R61     CG2R61     CG2R61     CG2R61
    6     1     2    28	 9 ;     CG2R61     CG2R61     CG2R61      HGR61
    7     1     2     3	 9 ;     CG3RC1     CG2R61     CG2R61     CG2R61
    7     1     2    28	 9 ;     CG3RC1     CG2R61     CG2R61      HGR61
    6     1     7     8	 9 ;     CG2R61     CG2R61     CG3RC1      CG321
    6     1     7    15	 9 ;     CG2R61     CG2R61     CG3RC1     NG3C51
    6     1     7    12	 9 ;     CG2R61     CG2R61     CG3RC1     CG3RC1
    2     1     7     8	 9 ;     CG2R61     CG2R61     CG3RC1      CG321
    2     1     7    15	 9 ;     CG2R61     CG2R61     CG3RC1     NG3C51
    2     1     7    12	 9 ;     CG2R61     CG2R61     CG3RC1     CG3RC1
    1     2     3     4	 9 ;     CG2R61     CG2R61     CG2R61     CG2R61
    1     2     3    20	 9 ;     CG2R61     CG2R61     CG2R61     CG2DC1
   28     2     3     4	 9 ;      HGR61     CG2R61     CG2R61     CG2R61
   28     2     3    20	 9 ;      HGR61     CG2R61     CG2R61     CG2DC1
   20     3     4     5	 9 ;     CG2DC1     CG2R61     CG2R61     CG2R61
   20     3     4    29	 9 ;     CG2DC1     CG2R61     CG2R61      HGR61
    2     3     4     5	 9 ;     CG2R61     CG2R61     CG2R61     CG2R61
    2     3     4    29	 9 ;     CG2R61     CG2R61     CG2R61      HGR61
    4     3    20    21	 9 ;     CG2R61     CG2R61     CG2DC1      CG321
    4     3    20    26	 9 ;     CG2R61     CG2R61     CG2DC1     CG2D1O
    2     3    20    21	 9 ;     CG2R61     CG2R61     CG2DC1      CG321
    2     3    20    26	 9 ;     CG2R61     CG2R61     CG2DC1     CG2D1O
    3     4     5     6	 9 ;     CG2R61     CG2R61     CG2R61     CG2R61
    3     4     5    30	 9 ;     CG2R61     CG2R61     CG2R61      HGR61
   29     4     5     6	 9 ;      HGR61     CG2R61     CG2R61     CG2R61
   29     4     5    30	 9 ;      HGR61     CG2R61     CG2R61      HGR61
    4     5     6     1	 9 ;     CG2R61     CG2R61     CG2R61     CG2R61
    4     5     6    31	 9 ;     CG2R61     CG2R61     CG2R61      HGR61
   30     5     6     1	 9 ;      HGR61     CG2R61     CG2R61     CG2R61
   30     5     6    31	 9 ;      HGR61     CG2R61     CG2R61      HGR61
    1     7     8     9	 9 ;     CG2R61     CG3RC1      CG321      CG321
    1     7     8    32	 9 ;     CG2R61     CG3RC1      CG321       HGA2
    1     7     8    33	 9 ;     CG2R61     CG3RC1      CG321       HGA2
   15     7     8     9	 9 ;     NG3C51     CG3RC1      CG321      CG321
   15     7     8    32	 9 ;     NG3C51     CG3RC1      CG321       HGA2
   15     7     8    33	 9 ;     NG3C51     CG3RC1      CG321       HGA2
   12     7     8     9	 9 ;     CG3RC1     CG3RC1      CG321      CG321
   12     7     8    32	 9 ;     CG3RC1     CG3RC1      CG321       HGA2
   12     7     8    33	 9 ;     CG3RC1     CG3RC1      CG321       HGA2
    1     7    15    16	 9 ;     CG2R61     CG3RC1     NG3C51       HGP1
    1     7    15    14	 9 ;     CG2R61     CG3RC1     NG3C51     CG3C51
    8     7    15    16	 9 ;      CG321     CG3RC1     NG3C51       HGP1
    8     7    15    14	 9 ;      CG321     CG3RC1     NG3C51     CG3C51
   12     7    15    16	 9 ;     CG3RC1     CG3RC1     NG3C51       HGP1
   12     7    15    14	 9 ;     CG3RC1     CG3RC1     NG3C51     CG3C51
    1     7    12    13	 9 ;     CG2R61     CG3RC1     CG3RC1     OG3C51
    1     7    12    11	 9 ;     CG2R61     CG3RC1     CG3RC1      CG321
    1     7    12    40	 9 ;     CG2R61     CG3RC1     CG3RC1       HGA1
    8     7    12    13	 9 ;      CG321     CG3RC1     CG3RC1     OG3C51
    8     7    12    11	 9 ;      CG321     CG3RC1     CG3RC1      CG321
    8     7    12    40	 9 ;      CG321     CG3RC1     CG3RC1       HGA1
   15     7    12    13	 9 ;     NG3C51     CG3RC1     CG3RC1     OG3C51
   15     7    12    11	 9 ;     NG3C51     CG3RC1     CG3RC1      CG321
   15     7    12    40	 9 ;     NG3C51     CG3RC1     CG3RC1       HGA1
    7     8     9    10	 9 ;     CG3RC1      CG321      CG321      CG321
    7     8     9    34	 9 ;     CG3RC1      CG321      CG321       HGA2
    7     8     9    35	 9 ;     CG3RC1      CG321      CG321       HGA2
   32     8     9    10	 9 ;       HGA2      CG321      CG321      CG321
   32     8     9    34	 9 ;       HGA2      CG321      CG321       HGA2
   32     8     9    35	 9 ;       HGA2      CG321      CG321       HGA2
   33     8     9    10	 9 ;       HGA2      CG321      CG321      CG321
   33     8     9    34	 9 ;       HGA2      CG321      CG321       HGA2
   33     8     9    35	 9 ;       HGA2      CG321      CG321       HGA2
    8     9    10    11	 9 ;      CG321      CG321      CG321      CG321
    8     9    10    36	 9 ;      CG321      CG321      CG321       HGA2
    8     9    10    37	 9 ;      CG321      CG321      CG321       HGA2
   34     9    10    11	 9 ;       HGA2      CG321      CG321      CG321
   34     9    10    36	 9 ;       HGA2      CG321      CG321       HGA2
   34     9    10    37	 9 ;       HGA2      CG321      CG321       HGA2
   35     9    10    11	 9 ;       HGA2      CG321      CG321      CG321
   35     9    10    36	 9 ;       HGA2      CG321      CG321       HGA2
   35     9    10    37	 9 ;       HGA2      CG321      CG321       HGA2
    9    10    11    12	 9 ;      CG321      CG321      CG321     CG3RC1
    9    10    11    38	 9 ;      CG321      CG321      CG321       HGA2
    9    10    11    39	 9 ;      CG321      CG321      CG321       HGA2
   36    10    11    12	 9 ;       HGA2      CG321      CG321     CG3RC1
   36    10    11    38	 9 ;       HGA2      CG321      CG321       HGA2
   36    10    11    39	 9 ;       HGA2      CG321      CG321       HGA2
   37    10    11    12	 9 ;       HGA2      CG321      CG321     CG3RC1
   37    10    11    38	 9 ;       HGA2      CG321      CG321       HGA2
   37    10    11    39	 9 ;       HGA2      CG321      CG321       HGA2
   10    11    12     7	 9 ;      CG321      CG321     CG3RC1     CG3RC1
   10    11    12    13	 9 ;      CG321      CG321     CG3RC1     OG3C51
   10    11    12    40	 9 ;      CG321      CG321     CG3RC1       HGA1
   38    11    12     7	 9 ;       HGA2      CG321     CG3RC1     CG3RC1
   38    11    12    13	 9 ;       HGA2      CG321     CG3RC1     OG3C51
   38    11    12    40	 9 ;       HGA2      CG321     CG3RC1       HGA1
   39    11    12     7	 9 ;       HGA2      CG321     CG3RC1     CG3RC1
   39    11    12    13	 9 ;       HGA2      CG321     CG3RC1     OG3C51
   39    11    12    40	 9 ;       HGA2      CG321     CG3RC1       HGA1
    7    12    13    14	 9 ;     CG3RC1     CG3RC1     OG3C51     CG3C51
   11    12    13    14	 9 ;      CG321     CG3RC1     OG3C51     CG3C51
   40    12    13    14	 9 ;       HGA1     CG3RC1     OG3C51     CG3C51
   12    13    14    15	 9 ;     CG3RC1     OG3C51     CG3C51     NG3C51
   12    13    14    17	 9 ;     CG3RC1     OG3C51     CG3C51      NG321
   12    13    14    41	 9 ;     CG3RC1     OG3C51     CG3C51       HGA1
   17    14    15    16	 9 ;      NG321     CG3C51     NG3C51       HGP1
   17    14    15     7	 9 ;      NG321     CG3C51     NG3C51     CG3RC1
   13    14    15    16	 9 ;     OG3C51     CG3C51     NG3C51       HGP1
   13    14    15     7	 9 ;     OG3C51     CG3C51     NG3C51     CG3RC1
   41    14    15    16	 9 ;       HGA1     CG3C51     NG3C51       HGP1
   41    14    15     7	 9 ;       HGA1     CG3C51     NG3C51     CG3RC1
   15    14    17    19	 9 ;     NG3C51     CG3C51      NG321     HGPAM2
   15    14    17    18	 9 ;     NG3C51     CG3C51      NG321     HGPAM2
   13    14    17    19	 9 ;     OG3C51     CG3C51      NG321     HGPAM2
   13    14    17    18	 9 ;     OG3C51     CG3C51      NG321     HGPAM2
   41    14    17    19	 9 ;       HGA1     CG3C51      NG321     HGPAM2
   41    14    17    18	 9 ;       HGA1     CG3C51      NG321     HGPAM2
    3    20    21    22	 9 ;     CG2R61     CG2DC1      CG321      NG311
    3    20    21    42	 9 ;     CG2R61     CG2DC1      CG321       HGA2
    3    20    21    43	 9 ;     CG2R61     CG2DC1      CG321       HGA2
   26    20    21    22	 9 ;     CG2D1O     CG2DC1      CG321      NG311
   26    20    21    42	 9 ;     CG2D1O     CG2DC1      CG321       HGA2
   26    20    21    43	 9 ;     CG2D1O     CG2DC1      CG321       HGA2
   21    20    26    25	 9 ;      CG321     CG2DC1     CG2D1O      NG311
   21    20    26    46	 9 ;      CG321     CG2DC1     CG2D1O       HGA4
    3    20    26    25	 9 ;     CG2R61     CG2DC1     CG2D1O      NG311
    3    20    26    46	 9 ;     CG2R61     CG2DC1     CG2D1O       HGA4
   20    21    22    24	 9 ;     CG2DC1      CG321      NG311     HGPAM1
   20    21    22    23	 9 ;     CG2DC1      CG321      NG311      CG321
   42    21    22    24	 9 ;       HGA2      CG321      NG311     HGPAM1
   42    21    22    23	 9 ;       HGA2      CG321      NG311      CG321
   43    21    22    24	 9 ;       HGA2      CG321      NG311     HGPAM1
   43    21    22    23	 9 ;       HGA2      CG321      NG311      CG321
   24    22    23    25	 9 ;     HGPAM1      NG311      CG321      NG311
   24    22    23    44	 9 ;     HGPAM1      NG311      CG321       HGA2
   24    22    23    45	 9 ;     HGPAM1      NG311      CG321       HGA2
   21    22    23    25	 9 ;      CG321      NG311      CG321      NG311
   21    22    23    44	 9 ;      CG321      NG311      CG321       HGA2
   21    22    23    45	 9 ;      CG321      NG311      CG321       HGA2
   22    23    25    26	 9 ;      NG311      CG321      NG311     CG2D1O
   22    23    25    27	 9 ;      NG311      CG321      NG311     HGPAM1
   44    23    25    26	 9 ;       HGA2      CG321      NG311     CG2D1O
   44    23    25    27	 9 ;       HGA2      CG321      NG311     HGPAM1
   45    23    25    26	 9 ;       HGA2      CG321      NG311     CG2D1O
   45    23    25    27	 9 ;       HGA2      CG321      NG311     HGPAM1
   23    25    26    20	 9 ;      CG321      NG311     CG2D1O     CG2DC1
   23    25    26    46	 9 ;      CG321      NG311     CG2D1O       HGA4
   27    25    26    20	 9 ;     HGPAM1      NG311     CG2D1O     CG2DC1
   27    25    26    46	 9 ;     HGPAM1      NG311     CG2D1O       HGA4

[ dihedrals ]
;	ai	  aj	ak	  al funct			  c0			c1			  c2			c3
   26    20    25    46	 2

