Gromacs Runs On Most of All Computer Systems
   46
    1LIG     C1    1  -1.458   0.451  -1.593
    1LIG     C2    2  -1.397   0.323  -1.588
    1LIG     C3    3  -1.276   0.295  -1.653
    1LIG     C4    4  -1.221   0.395  -1.735
    1LIG     C5    5  -1.281   0.520  -1.745
    1LIG     C6    6  -1.397   0.549  -1.673
    1LIG     C7    7  -1.572   0.482  -1.496
    1LIG     C8    8  -1.694   0.394  -1.537
    1LIG     C9    9  -1.696   0.262  -1.460
    1LIG    C10   10  -1.712   0.284  -1.309
    1LIG    C11   11  -1.665   0.422  -1.265
    1LIG    C12   12  -1.542   0.468  -1.345
    1LIG      O   13  -1.505   0.599  -1.305
    1LIG    C13   14  -1.561   0.678  -1.399
    1LIG     N1   15  -1.610   0.626  -1.506
    1LIG    HN1   16  -1.662   0.672  -1.581
    1LIG     N2   17  -1.558   0.809  -1.367
    1LIG     H1   18  -1.610   0.831  -1.284
    1LIG     H2   19  -1.464   0.848  -1.370
    1LIG    C14   20  -1.196   0.176  -1.620
    1LIG    C15   21  -1.216   0.051  -1.676
    1LIG     N3   22  -1.130  -0.053  -1.665
    1LIG    C16   23  -1.020  -0.029  -1.592
    1LIG    HN2   24  -1.147  -0.143  -1.710
    1LIG     N4   25  -0.992   0.084  -1.526
    1LIG    C17   26  -1.082   0.184  -1.541
    1LIG    HN3   27  -0.909   0.094  -1.468
    1LIG     H3   28  -1.444   0.248  -1.535
    1LIG     H4   29  -1.135   0.375  -1.788
    1LIG     H5   30  -1.240   0.592  -1.807
    1LIG     H6   31  -1.439   0.643  -1.678
    1LIG     H7   32  -1.687   0.373  -1.642
    1LIG     H8   33  -1.784   0.448  -1.515
    1LIG     H9   34  -1.604   0.210  -1.478
    1LIG    H10   35  -1.780   0.205  -1.494
    1LIG    H11   36  -1.654   0.210  -1.258
    1LIG    H12   37  -1.816   0.276  -1.286
    1LIG    H13   38  -1.744   0.493  -1.281
    1LIG    H14   39  -1.638   0.417  -1.162
    1LIG    H15   40  -1.466   0.394  -1.327
    1LIG    H16   41  -1.618   0.694  -1.488
    1LIG    H17   42  -1.309   0.016  -1.637
    1LIG    H18   43  -1.205   0.075  -1.780
    1LIG    H19   44  -0.938  -0.043  -1.659
    1LIG    H20   45  -1.039  -0.095  -1.509
    1LIG    H21   46  -1.064   0.272  -1.491
   0.00000   0.00000   0.00000
