; Created by cgenff_charmm2gmx.py

[ moleculetype ]
; Name			   nrexcl
LIG				 3

[ atoms ]
;	 nr		  type	resnr residue  atom   cgnr	   charge		mass  typeB    chargeB		massB
; residue	 1 LIG rtp LIG q	qsum
     1      CLGR1      1    LIG     CL      1     -0.200     35.453   ;
     2     CG2R61      1    LIG     C1      2      0.048     12.011   ;
     3     CG2R61      1    LIG     C2      3     -0.121     12.011   ;
     4     CG2R61      1    LIG     C3      4      0.075     12.011   ;
     5      CG321      1    LIG     C4      5     -0.230     12.011   ;
     6      CG301      1    LIG     C5      6      0.375     12.011   ;
     7      NG311      1    LIG     N1      7     -0.864     14.007   ;
     8     HGPAM1      1    LIG     HN      8      0.350      1.008   ;
     9      CG311      1    LIG     C6      9      0.346     12.011   ;
    10      NG311      1    LIG     N2     10     -0.806     14.007   ;
    11     CG2R61      1    LIG     C7     11     -0.052     12.011   ;
    12     CG2R61      1    LIG     C8     12     -0.108     12.011   ;
    13     CG2R61      1    LIG     C9     13     -0.099     12.011   ;
    14      CG331      1    LIG    C10     14     -0.295     12.011   ;
    15      CG331      1    LIG    C11     15     -0.295     12.011   ;
    16     HGPAM1      1    LIG      H     16      0.362      1.008   ;
    17      CG311      1    LIG     CA     17     -0.001     12.011   ;
    18      CG321      1    LIG    C12     18     -0.215     12.011   ;
    19     CG2R51      1    LIG    C13     19     -0.014     12.011   ;
    20     CG2R51      1    LIG    C14     20     -0.173     12.011   ;
    21     SG2R50      1    LIG      S     21     -0.168     32.060   ;
    22     CG2R51      1    LIG    C15     22     -0.221     12.011   ;
    23     CG2R51      1    LIG    C16     23      0.213     12.011   ;
    24     CG3C31      1    LIG    C17     24     -0.152     12.011   ;
    25     CG3C31      1    LIG    C18     25     -0.185     12.011   ;
    26     CG3C31      1    LIG    C19     26     -0.185     12.011   ;
    27      CG2O3      1    LIG    C20     27      0.898     12.011   ;
    28      OG2D2      1    LIG      O     28     -0.832     15.999   ;
    29      OG2D2      1    LIG    OXT     29     -0.832     15.999   ;
    30      HGR62      1    LIG     HC     30      0.145      1.008   ;
    31       HGA2      1    LIG    HC2     31      0.090      1.008   ;
    32       HGA2      1    LIG    HC3     32      0.090      1.008   ;
    33      HGR61      1    LIG    HC1     33      0.116      1.008   ;
    34      HGR62      1    LIG    HC4     34      0.150      1.008   ;
    35       HGA3      1    LIG    HC5     35      0.090      1.008   ;
    36       HGA3      1    LIG    HC6     36      0.090      1.008   ;
    37       HGA3      1    LIG    HC7     37      0.090      1.008   ;
    38       HGA3      1    LIG    HC8     38      0.090      1.008   ;
    39       HGA3      1    LIG    HC9     39      0.090      1.008   ;
    40       HGA3      1    LIG   HC10     40      0.090      1.008   ;
    41       HGA1      1    LIG   HC11     41      0.090      1.008   ;
    42       HGA2      1    LIG   HC12     42      0.090      1.008   ;
    43       HGA2      1    LIG   HC13     43      0.090      1.008   ;
    44      HGR52      1    LIG   HC14     44      0.195      1.008   ;
    45      HGR52      1    LIG   HC15     45      0.195      1.008   ;
    46       HGA1      1    LIG   HC16     46      0.090      1.008   ;
    47       HGA2      1    LIG   HC17     47      0.090      1.008   ;
    48       HGA2      1    LIG   HC18     48      0.090      1.008   ;
    49       HGA2      1    LIG   HC19     49      0.090      1.008   ;
    50       HGA2      1    LIG   HC20     50      0.090      1.008   ;
    51       HGA1      1    LIG    H24     51      0.090      1.008   ;
    52        LPH      1    LIG    LP1     52      0.050      0.000   ;

[ bonds ]
;	ai	  aj funct			  c0			c1			  c2			c3
    1     2	 1 ;       CLGR1     CG2R61
    2     3	 1 ;      CG2R61     CG2R61
    2    13	 1 ;      CG2R61     CG2R61
    3     4	 1 ;      CG2R61     CG2R61
    3    30	 1 ;      CG2R61      HGR62
    4     5	 1 ;      CG2R61      CG321
    4    11	 1 ;      CG2R61     CG2R61
    5     6	 1 ;       CG321      CG301
    5    31	 1 ;       CG321       HGA2
    5    32	 1 ;       CG321       HGA2
    6    15	 1 ;       CG301      CG331
    6    14	 1 ;       CG301      CG331
    6     7	 1 ;       CG301      NG311
    7     8	 1 ;       NG311     HGPAM1
    7     9	 1 ;       NG311      CG311
    9    11	 1 ;       CG311     CG2R61
    9    10	 1 ;       CG311      NG311
    9    51	 1 ;       CG311       HGA1
   10    17	 1 ;       NG311      CG311
   10    16	 1 ;       NG311     HGPAM1
   11    12	 1 ;      CG2R61     CG2R61
   12    13	 1 ;      CG2R61     CG2R61
   12    33	 1 ;      CG2R61      HGR61
   13    34	 1 ;      CG2R61      HGR62
   14    35	 1 ;       CG331       HGA3
   14    36	 1 ;       CG331       HGA3
   14    37	 1 ;       CG331       HGA3
   15    38	 1 ;       CG331       HGA3
   15    39	 1 ;       CG331       HGA3
   15    40	 1 ;       CG331       HGA3
   17    27	 1 ;       CG311      CG2O3
   17    18	 1 ;       CG311      CG321
   17    41	 1 ;       CG311       HGA1
   18    19	 1 ;       CG321     CG2R51
   18    42	 1 ;       CG321       HGA2
   18    43	 1 ;       CG321       HGA2
   19    20	 1 ;      CG2R51     CG2R51
   19    23	 1 ;      CG2R51     CG2R51
   20    21	 1 ;      CG2R51     SG2R50
   20    44	 1 ;      CG2R51      HGR52
   21    22	 1 ;      SG2R50     CG2R51
   22    23	 1 ;      CG2R51     CG2R51
   22    45	 1 ;      CG2R51      HGR52
   23    24	 1 ;      CG2R51     CG3C31
   24    25	 1 ;      CG3C31     CG3C31
   24    26	 1 ;      CG3C31     CG3C31
   24    46	 1 ;      CG3C31       HGA1
   25    26	 1 ;      CG3C31     CG3C31
   25    47	 1 ;      CG3C31       HGA2
   25    48	 1 ;      CG3C31       HGA2
   26    49	 1 ;      CG3C31       HGA2
   26    50	 1 ;      CG3C31       HGA2
   27    29	 1 ;       CG2O3      OG2D2
   27    28	 1 ;       CG2O3      OG2D2

[ pairs ]
;	ai	  aj funct			  c0			c1			  c2			c3
    1     4	 1
   52     4	 1
    1    30	 1
   52    30	 1
    1    12	 1
   52    12	 1
    1    34	 1
   52    34	 1
    2     5	 1
    2    11	 1
    2    33	 1
    3    12	 1
    3    34	 1
    3     6	 1
    3    31	 1
    3    32	 1
    3     9	 1
    4    13	 1
    4    15	 1
    4    14	 1
    4     7	 1
    4    10	 1
    4    51	 1
    4    33	 1
    5    30	 1
    5    12	 1
    5     9	 1
    5    38	 1
    5    39	 1
    5    40	 1
    5    35	 1
    5    36	 1
    5    37	 1
    5     8	 1
    6    11	 1
    6    10	 1
    6    51	 1
    7    31	 1
    7    32	 1
    7    38	 1
    7    39	 1
    7    40	 1
    7    35	 1
    7    36	 1
    7    37	 1
    7    12	 1
    7    17	 1
    7    16	 1
    8    15	 1
    8    14	 1
    8    11	 1
    8    10	 1
    8    51	 1
    9    15	 1
    9    14	 1
    9    27	 1
    9    18	 1
    9    41	 1
    9    13	 1
    9    33	 1
   10    12	 1
   10    29	 1
   10    28	 1
   10    19	 1
   10    42	 1
   10    43	 1
   11    30	 1
   11    31	 1
   11    32	 1
   11    17	 1
   11    16	 1
   11    34	 1
   12    51	 1
   13    30	 1
   14    31	 1
   14    32	 1
   14    38	 1
   14    39	 1
   14    40	 1
   15    31	 1
   15    32	 1
   15    35	 1
   15    36	 1
   15    37	 1
   16    51	 1
   16    27	 1
   16    18	 1
   16    41	 1
   17    51	 1
   17    20	 1
   17    23	 1
   18    29	 1
   18    28	 1
   18    21	 1
   18    44	 1
   18    22	 1
   18    24	 1
   19    27	 1
   19    41	 1
   19    45	 1
   19    25	 1
   19    26	 1
   19    46	 1
   20    42	 1
   20    43	 1
   20    24	 1
   20    45	 1
   21    24	 1
   22    44	 1
   22    25	 1
   22    26	 1
   22    46	 1
   23    42	 1
   23    43	 1
   23    44	 1
   23    47	 1
   23    48	 1
   23    49	 1
   23    50	 1
   24    45	 1
   27    42	 1
   27    43	 1
   28    41	 1
   29    41	 1
   33    34	 1
   41    42	 1
   41    43	 1
   46    47	 1
   46    48	 1
   46    49	 1
   46    50	 1
   47    49	 1
   47    50	 1
   48    49	 1
   48    50	 1

[ angles ]
;	ai	  aj	ak funct			c0			  c1			c2			  c3
    1     2     3	5 ;      CLGR1     CG2R61     CG2R61
    1     2    13	5 ;      CLGR1     CG2R61     CG2R61
    3     2    13	5 ;     CG2R61     CG2R61     CG2R61
    2     3     4	5 ;     CG2R61     CG2R61     CG2R61
    2     3    30	5 ;     CG2R61     CG2R61      HGR62
    4     3    30	5 ;     CG2R61     CG2R61      HGR62
    3     4     5	5 ;     CG2R61     CG2R61      CG321
    3     4    11	5 ;     CG2R61     CG2R61     CG2R61
    5     4    11	5 ;      CG321     CG2R61     CG2R61
    6     5     4	5 ;      CG301      CG321     CG2R61
    6     5    31	5 ;      CG301      CG321       HGA2
    6     5    32	5 ;      CG301      CG321       HGA2
    4     5    31	5 ;     CG2R61      CG321       HGA2
    4     5    32	5 ;     CG2R61      CG321       HGA2
   31     5    32	5 ;       HGA2      CG321       HGA2
   15     6    14	5 ;      CG331      CG301      CG331
   15     6     5	5 ;      CG331      CG301      CG321
   15     6     7	5 ;      CG331      CG301      NG311
   14     6     5	5 ;      CG331      CG301      CG321
   14     6     7	5 ;      CG331      CG301      NG311
    5     6     7	5 ;      CG321      CG301      NG311
    6     7     8	5 ;      CG301      NG311     HGPAM1
    6     7     9	5 ;      CG301      NG311      CG311
    8     7     9	5 ;     HGPAM1      NG311      CG311
    7     9    11	5 ;      NG311      CG311     CG2R61
    7     9    10	5 ;      NG311      CG311      NG311
    7     9    51	5 ;      NG311      CG311       HGA1
   11     9    10	5 ;     CG2R61      CG311      NG311
   11     9    51	5 ;     CG2R61      CG311       HGA1
   10     9    51	5 ;      NG311      CG311       HGA1
    9    10    17	5 ;      CG311      NG311      CG311
    9    10    16	5 ;      CG311      NG311     HGPAM1
   17    10    16	5 ;      CG311      NG311     HGPAM1
    4    11    12	5 ;     CG2R61     CG2R61     CG2R61
    4    11     9	5 ;     CG2R61     CG2R61      CG311
   12    11     9	5 ;     CG2R61     CG2R61      CG311
   13    12    11	5 ;     CG2R61     CG2R61     CG2R61
   13    12    33	5 ;     CG2R61     CG2R61      HGR61
   11    12    33	5 ;     CG2R61     CG2R61      HGR61
    2    13    12	5 ;     CG2R61     CG2R61     CG2R61
    2    13    34	5 ;     CG2R61     CG2R61      HGR62
   12    13    34	5 ;     CG2R61     CG2R61      HGR62
    6    14    35	5 ;      CG301      CG331       HGA3
    6    14    36	5 ;      CG301      CG331       HGA3
    6    14    37	5 ;      CG301      CG331       HGA3
   35    14    36	5 ;       HGA3      CG331       HGA3
   35    14    37	5 ;       HGA3      CG331       HGA3
   36    14    37	5 ;       HGA3      CG331       HGA3
    6    15    38	5 ;      CG301      CG331       HGA3
    6    15    39	5 ;      CG301      CG331       HGA3
    6    15    40	5 ;      CG301      CG331       HGA3
   38    15    39	5 ;       HGA3      CG331       HGA3
   38    15    40	5 ;       HGA3      CG331       HGA3
   39    15    40	5 ;       HGA3      CG331       HGA3
   10    17    27	5 ;      NG311      CG311      CG2O3
   10    17    18	5 ;      NG311      CG311      CG321
   10    17    41	5 ;      NG311      CG311       HGA1
   27    17    18	5 ;      CG2O3      CG311      CG321
   27    17    41	5 ;      CG2O3      CG311       HGA1
   18    17    41	5 ;      CG321      CG311       HGA1
   17    18    19	5 ;      CG311      CG321     CG2R51
   17    18    42	5 ;      CG311      CG321       HGA2
   17    18    43	5 ;      CG311      CG321       HGA2
   19    18    42	5 ;     CG2R51      CG321       HGA2
   19    18    43	5 ;     CG2R51      CG321       HGA2
   42    18    43	5 ;       HGA2      CG321       HGA2
   18    19    20	5 ;      CG321     CG2R51     CG2R51
   18    19    23	5 ;      CG321     CG2R51     CG2R51
   20    19    23	5 ;     CG2R51     CG2R51     CG2R51
   19    20    21	5 ;     CG2R51     CG2R51     SG2R50
   19    20    44	5 ;     CG2R51     CG2R51      HGR52
   21    20    44	5 ;     SG2R50     CG2R51      HGR52
   20    21    22	5 ;     CG2R51     SG2R50     CG2R51
   21    22    23	5 ;     SG2R50     CG2R51     CG2R51
   21    22    45	5 ;     SG2R50     CG2R51      HGR52
   23    22    45	5 ;     CG2R51     CG2R51      HGR52
   19    23    22	5 ;     CG2R51     CG2R51     CG2R51
   19    23    24	5 ;     CG2R51     CG2R51     CG3C31
   22    23    24	5 ;     CG2R51     CG2R51     CG3C31
   23    24    25	5 ;     CG2R51     CG3C31     CG3C31
   23    24    26	5 ;     CG2R51     CG3C31     CG3C31
   23    24    46	5 ;     CG2R51     CG3C31       HGA1
   25    24    26	5 ;     CG3C31     CG3C31     CG3C31
   25    24    46	5 ;     CG3C31     CG3C31       HGA1
   26    24    46	5 ;     CG3C31     CG3C31       HGA1
   24    25    26	5 ;     CG3C31     CG3C31     CG3C31
   24    25    47	5 ;     CG3C31     CG3C31       HGA2
   24    25    48	5 ;     CG3C31     CG3C31       HGA2
   26    25    47	5 ;     CG3C31     CG3C31       HGA2
   26    25    48	5 ;     CG3C31     CG3C31       HGA2
   47    25    48	5 ;       HGA2     CG3C31       HGA2
   24    26    25	5 ;     CG3C31     CG3C31     CG3C31
   24    26    49	5 ;     CG3C31     CG3C31       HGA2
   24    26    50	5 ;     CG3C31     CG3C31       HGA2
   25    26    49	5 ;     CG3C31     CG3C31       HGA2
   25    26    50	5 ;     CG3C31     CG3C31       HGA2
   49    26    50	5 ;       HGA2     CG3C31       HGA2
   17    27    29	5 ;      CG311      CG2O3      OG2D2
   17    27    28	5 ;      CG311      CG2O3      OG2D2
   29    27    28	5 ;      OG2D2      CG2O3      OG2D2

[ dihedrals ]
;	ai	  aj	ak	  al funct			  c0			c1			  c2			c3			  c4			c5
    1     2     3     4	 9 ;      CLGR1     CG2R61     CG2R61     CG2R61
    1     2     3    30	 9 ;      CLGR1     CG2R61     CG2R61      HGR62
   13     2     3     4	 9 ;     CG2R61     CG2R61     CG2R61     CG2R61
   13     2     3    30	 9 ;     CG2R61     CG2R61     CG2R61      HGR62
    1     2    13    12	 9 ;      CLGR1     CG2R61     CG2R61     CG2R61
    1     2    13    34	 9 ;      CLGR1     CG2R61     CG2R61      HGR62
    3     2    13    12	 9 ;     CG2R61     CG2R61     CG2R61     CG2R61
    3     2    13    34	 9 ;     CG2R61     CG2R61     CG2R61      HGR62
    2     3     4     5	 9 ;     CG2R61     CG2R61     CG2R61      CG321
    2     3     4    11	 9 ;     CG2R61     CG2R61     CG2R61     CG2R61
   30     3     4     5	 9 ;      HGR62     CG2R61     CG2R61      CG321
   30     3     4    11	 9 ;      HGR62     CG2R61     CG2R61     CG2R61
    3     4     5     6	 9 ;     CG2R61     CG2R61      CG321      CG301
    3     4     5    31	 9 ;     CG2R61     CG2R61      CG321       HGA2
    3     4     5    32	 9 ;     CG2R61     CG2R61      CG321       HGA2
   11     4     5     6	 9 ;     CG2R61     CG2R61      CG321      CG301
   11     4     5    31	 9 ;     CG2R61     CG2R61      CG321       HGA2
   11     4     5    32	 9 ;     CG2R61     CG2R61      CG321       HGA2
    3     4    11    12	 9 ;     CG2R61     CG2R61     CG2R61     CG2R61
    3     4    11     9	 9 ;     CG2R61     CG2R61     CG2R61      CG311
    5     4    11    12	 9 ;      CG321     CG2R61     CG2R61     CG2R61
    5     4    11     9	 9 ;      CG321     CG2R61     CG2R61      CG311
    4     5     6    15	 9 ;     CG2R61      CG321      CG301      CG331
    4     5     6    14	 9 ;     CG2R61      CG321      CG301      CG331
    4     5     6     7	 9 ;     CG2R61      CG321      CG301      NG311
   31     5     6    15	 9 ;       HGA2      CG321      CG301      CG331
   31     5     6    14	 9 ;       HGA2      CG321      CG301      CG331
   31     5     6     7	 9 ;       HGA2      CG321      CG301      NG311
   32     5     6    15	 9 ;       HGA2      CG321      CG301      CG331
   32     5     6    14	 9 ;       HGA2      CG321      CG301      CG331
   32     5     6     7	 9 ;       HGA2      CG321      CG301      NG311
   14     6    15    38	 9 ;      CG331      CG301      CG331       HGA3
   14     6    15    39	 9 ;      CG331      CG301      CG331       HGA3
   14     6    15    40	 9 ;      CG331      CG301      CG331       HGA3
    5     6    15    38	 9 ;      CG321      CG301      CG331       HGA3
    5     6    15    39	 9 ;      CG321      CG301      CG331       HGA3
    5     6    15    40	 9 ;      CG321      CG301      CG331       HGA3
    7     6    15    38	 9 ;      NG311      CG301      CG331       HGA3
    7     6    15    39	 9 ;      NG311      CG301      CG331       HGA3
    7     6    15    40	 9 ;      NG311      CG301      CG331       HGA3
   15     6    14    35	 9 ;      CG331      CG301      CG331       HGA3
   15     6    14    36	 9 ;      CG331      CG301      CG331       HGA3
   15     6    14    37	 9 ;      CG331      CG301      CG331       HGA3
    5     6    14    35	 9 ;      CG321      CG301      CG331       HGA3
    5     6    14    36	 9 ;      CG321      CG301      CG331       HGA3
    5     6    14    37	 9 ;      CG321      CG301      CG331       HGA3
    7     6    14    35	 9 ;      NG311      CG301      CG331       HGA3
    7     6    14    36	 9 ;      NG311      CG301      CG331       HGA3
    7     6    14    37	 9 ;      NG311      CG301      CG331       HGA3
   15     6     7     8	 9 ;      CG331      CG301      NG311     HGPAM1
   15     6     7     9	 9 ;      CG331      CG301      NG311      CG311
   14     6     7     8	 9 ;      CG331      CG301      NG311     HGPAM1
   14     6     7     9	 9 ;      CG331      CG301      NG311      CG311
    5     6     7     8	 9 ;      CG321      CG301      NG311     HGPAM1
    5     6     7     9	 9 ;      CG321      CG301      NG311      CG311
    6     7     9    11	 9 ;      CG301      NG311      CG311     CG2R61
    6     7     9    10	 9 ;      CG301      NG311      CG311      NG311
    6     7     9    51	 9 ;      CG301      NG311      CG311       HGA1
    8     7     9    11	 9 ;     HGPAM1      NG311      CG311     CG2R61
    8     7     9    10	 9 ;     HGPAM1      NG311      CG311      NG311
    8     7     9    51	 9 ;     HGPAM1      NG311      CG311       HGA1
    7     9    11     4	 9 ;      NG311      CG311     CG2R61     CG2R61
    7     9    11    12	 9 ;      NG311      CG311     CG2R61     CG2R61
   10     9    11     4	 9 ;      NG311      CG311     CG2R61     CG2R61
   10     9    11    12	 9 ;      NG311      CG311     CG2R61     CG2R61
   51     9    11     4	 9 ;       HGA1      CG311     CG2R61     CG2R61
   51     9    11    12	 9 ;       HGA1      CG311     CG2R61     CG2R61
    7     9    10    17	 9 ;      NG311      CG311      NG311      CG311
    7     9    10    16	 9 ;      NG311      CG311      NG311     HGPAM1
   11     9    10    17	 9 ;     CG2R61      CG311      NG311      CG311
   11     9    10    16	 9 ;     CG2R61      CG311      NG311     HGPAM1
   51     9    10    17	 9 ;       HGA1      CG311      NG311      CG311
   51     9    10    16	 9 ;       HGA1      CG311      NG311     HGPAM1
    9    10    17    27	 9 ;      CG311      NG311      CG311      CG2O3
    9    10    17    18	 9 ;      CG311      NG311      CG311      CG321
    9    10    17    41	 9 ;      CG311      NG311      CG311       HGA1
   16    10    17    27	 9 ;     HGPAM1      NG311      CG311      CG2O3
   16    10    17    18	 9 ;     HGPAM1      NG311      CG311      CG321
   16    10    17    41	 9 ;     HGPAM1      NG311      CG311       HGA1
    4    11    12    13	 9 ;     CG2R61     CG2R61     CG2R61     CG2R61
    4    11    12    33	 9 ;     CG2R61     CG2R61     CG2R61      HGR61
    9    11    12    13	 9 ;      CG311     CG2R61     CG2R61     CG2R61
    9    11    12    33	 9 ;      CG311     CG2R61     CG2R61      HGR61
   11    12    13     2	 9 ;     CG2R61     CG2R61     CG2R61     CG2R61
   11    12    13    34	 9 ;     CG2R61     CG2R61     CG2R61      HGR62
   33    12    13     2	 9 ;      HGR61     CG2R61     CG2R61     CG2R61
   33    12    13    34	 9 ;      HGR61     CG2R61     CG2R61      HGR62
   10    17    27    29	 9 ;      NG311      CG311      CG2O3      OG2D2
   10    17    27    28	 9 ;      NG311      CG311      CG2O3      OG2D2
   18    17    27    29	 9 ;      CG321      CG311      CG2O3      OG2D2
   18    17    27    28	 9 ;      CG321      CG311      CG2O3      OG2D2
   41    17    27    29	 9 ;       HGA1      CG311      CG2O3      OG2D2
   41    17    27    28	 9 ;       HGA1      CG311      CG2O3      OG2D2
   10    17    18    19	 9 ;      NG311      CG311      CG321     CG2R51
   10    17    18    42	 9 ;      NG311      CG311      CG321       HGA2
   10    17    18    43	 9 ;      NG311      CG311      CG321       HGA2
   27    17    18    19	 9 ;      CG2O3      CG311      CG321     CG2R51
   27    17    18    42	 9 ;      CG2O3      CG311      CG321       HGA2
   27    17    18    43	 9 ;      CG2O3      CG311      CG321       HGA2
   41    17    18    19	 9 ;       HGA1      CG311      CG321     CG2R51
   41    17    18    42	 9 ;       HGA1      CG311      CG321       HGA2
   41    17    18    43	 9 ;       HGA1      CG311      CG321       HGA2
   17    18    19    20	 9 ;      CG311      CG321     CG2R51     CG2R51
   17    18    19    23	 9 ;      CG311      CG321     CG2R51     CG2R51
   42    18    19    20	 9 ;       HGA2      CG321     CG2R51     CG2R51
   42    18    19    23	 9 ;       HGA2      CG321     CG2R51     CG2R51
   43    18    19    20	 9 ;       HGA2      CG321     CG2R51     CG2R51
   43    18    19    23	 9 ;       HGA2      CG321     CG2R51     CG2R51
   18    19    20    21	 9 ;      CG321     CG2R51     CG2R51     SG2R50
   18    19    20    44	 9 ;      CG321     CG2R51     CG2R51      HGR52
   23    19    20    21	 9 ;     CG2R51     CG2R51     CG2R51     SG2R50
   23    19    20    44	 9 ;     CG2R51     CG2R51     CG2R51      HGR52
   18    19    23    22	 9 ;      CG321     CG2R51     CG2R51     CG2R51
   18    19    23    24	 9 ;      CG321     CG2R51     CG2R51     CG3C31
   20    19    23    22	 9 ;     CG2R51     CG2R51     CG2R51     CG2R51
   20    19    23    24	 9 ;     CG2R51     CG2R51     CG2R51     CG3C31
   19    20    21    22	 9 ;     CG2R51     CG2R51     SG2R50     CG2R51
   44    20    21    22	 9 ;      HGR52     CG2R51     SG2R50     CG2R51
   20    21    22    23	 9 ;     CG2R51     SG2R50     CG2R51     CG2R51
   20    21    22    45	 9 ;     CG2R51     SG2R50     CG2R51      HGR52
   21    22    23    19	 9 ;     SG2R50     CG2R51     CG2R51     CG2R51
   21    22    23    24	 9 ;     SG2R50     CG2R51     CG2R51     CG3C31
   45    22    23    19	 9 ;      HGR52     CG2R51     CG2R51     CG2R51
   45    22    23    24	 9 ;      HGR52     CG2R51     CG2R51     CG3C31
   19    23    24    25	 9 ;     CG2R51     CG2R51     CG3C31     CG3C31
   19    23    24    26	 9 ;     CG2R51     CG2R51     CG3C31     CG3C31
   19    23    24    46	 9 ;     CG2R51     CG2R51     CG3C31       HGA1
   22    23    24    25	 9 ;     CG2R51     CG2R51     CG3C31     CG3C31
   22    23    24    26	 9 ;     CG2R51     CG2R51     CG3C31     CG3C31
   22    23    24    46	 9 ;     CG2R51     CG2R51     CG3C31       HGA1
   23    24    25    26	 9 ;     CG2R51     CG3C31     CG3C31     CG3C31
   23    24    25    47	 9 ;     CG2R51     CG3C31     CG3C31       HGA2
   23    24    25    48	 9 ;     CG2R51     CG3C31     CG3C31       HGA2
   26    24    25    47	 9 ;     CG3C31     CG3C31     CG3C31       HGA2
   26    24    25    48	 9 ;     CG3C31     CG3C31     CG3C31       HGA2
   46    24    25    26	 9 ;       HGA1     CG3C31     CG3C31     CG3C31
   46    24    25    47	 9 ;       HGA1     CG3C31     CG3C31       HGA2
   46    24    25    48	 9 ;       HGA1     CG3C31     CG3C31       HGA2
   23    24    26    25	 9 ;     CG2R51     CG3C31     CG3C31     CG3C31
   23    24    26    49	 9 ;     CG2R51     CG3C31     CG3C31       HGA2
   23    24    26    50	 9 ;     CG2R51     CG3C31     CG3C31       HGA2
   25    24    26    49	 9 ;     CG3C31     CG3C31     CG3C31       HGA2
   25    24    26    50	 9 ;     CG3C31     CG3C31     CG3C31       HGA2
   46    24    26    25	 9 ;       HGA1     CG3C31     CG3C31     CG3C31
   46    24    26    49	 9 ;       HGA1     CG3C31     CG3C31       HGA2
   46    24    26    50	 9 ;       HGA1     CG3C31     CG3C31       HGA2
   24    25    26    49	 9 ;     CG3C31     CG3C31     CG3C31       HGA2
   24    25    26    50	 9 ;     CG3C31     CG3C31     CG3C31       HGA2
   47    25    26    24	 9 ;       HGA2     CG3C31     CG3C31     CG3C31
   47    25    26    49	 9 ;       HGA2     CG3C31     CG3C31       HGA2
   47    25    26    50	 9 ;       HGA2     CG3C31     CG3C31       HGA2
   48    25    26    24	 9 ;       HGA2     CG3C31     CG3C31     CG3C31
   48    25    26    49	 9 ;       HGA2     CG3C31     CG3C31       HGA2
   48    25    26    50	 9 ;       HGA2     CG3C31     CG3C31       HGA2

[ dihedrals ]
;	ai	  aj	ak	  al funct			  c0			c1			  c2			c3
   27    28    29    17	 2

[ virtual_sites2 ]
; Site   from				funct a
   52     1     2     2   -0.164

[ exclusions ]
;	ai	  aj
    1    52
   52     2
   52     3
   52    13
   52     4
   52    30
   52    12
   52    34

