Gnomes, ROck Monsters And Chili Sauce
   52
    1LIG     CL    1  -0.962  -0.063  -1.355
    1LIG     C1    2  -1.082   0.044  -1.414
    1LIG     C2    3  -1.077   0.180  -1.379
    1LIG     C3    4  -1.175   0.267  -1.428
    1LIG     C4    5  -1.171   0.415  -1.400
    1LIG     C5    6  -1.226   0.493  -1.521
    1LIG     N1    7  -1.360   0.442  -1.559
    1LIG     HN    8  -1.432   0.507  -1.590
    1LIG     C6    9  -1.385   0.315  -1.553
    1LIG     N2   10  -1.506   0.264  -1.589
    1LIG     C7   11  -1.280   0.218  -1.505
    1LIG     C8   12  -1.284   0.083  -1.542
    1LIG     C9   13  -1.184  -0.004  -1.496
    1LIG    C10   14  -1.244   0.640  -1.483
    1LIG    C11   15  -1.132   0.486  -1.642
    1LIG      H   16  -1.535   0.169  -1.562
    1LIG     CA   17  -1.615   0.326  -1.664
    1LIG    C12   18  -1.728   0.231  -1.707
    1LIG    C13   19  -1.862   0.292  -1.744
    1LIG    C14   20  -1.881   0.360  -1.863
    1LIG      S   21  -2.036   0.425  -1.884
    1LIG    C15   22  -2.083   0.369  -1.730
    1LIG    C16   23  -1.982   0.301  -1.665
    1LIG    C17   24  -1.997   0.244  -1.525
    1LIG    C18   25  -2.101   0.137  -1.498
    1LIG    C19   26  -2.126   0.275  -1.450
    1LIG    C20   27  -1.671   0.445  -1.579
    1LIG      O   28  -1.714   0.411  -1.463
    1LIG    OXT   29  -1.664   0.560  -1.630
    1LIG     HC   30  -0.998   0.216  -1.316
    1LIG    HC2   31  -1.068   0.445  -1.382
    1LIG    HC3   32  -1.231   0.437  -1.312
    1LIG    HC1   33  -1.363   0.046  -1.605
    1LIG    HC4   34  -1.186  -0.108  -1.525
    1LIG    HC5   35  -1.311   0.649  -1.398
    1LIG    HC6   36  -1.147   0.683  -1.458
    1LIG    HC7   37  -1.286   0.695  -1.568
    1LIG    HC8   38  -1.117   0.382  -1.671
    1LIG    HC9   39  -1.175   0.541  -1.725
    1LIG   HC10   40  -1.035   0.530  -1.615
    1LIG   HC11   41  -1.573   0.369  -1.755
    1LIG   HC12   42  -1.745   0.163  -1.624
    1LIG   HC13   43  -1.692   0.173  -1.792
    1LIG   HC14   44  -1.803   0.371  -1.937
    1LIG   HC15   45  -2.181   0.385  -1.688
    1LIG   HC16   46  -1.907   0.240  -1.465
    1LIG   HC17   47  -2.079   0.057  -1.426
    1LIG   HC18   48  -2.160   0.106  -1.584
    1LIG   HC19   49  -2.122   0.298  -1.343
    1LIG   HC20   50  -2.200   0.331  -1.506
    1LIG    H24   51  -1.420   0.327  -1.450
    1LIG    LP1   52  -0.846  -0.166  -1.299
   0.00000   0.00000   0.00000
