GRowing Old MAkes el Chrono Sweat
   74
    1LIG     C1    1  -1.753   0.515  -1.390
    1LIG     C2    2  -1.644   0.456  -1.462
    1LIG     C3    3  -1.548   0.537  -1.530
    1LIG     C4    4  -1.559   0.674  -1.509
    1LIG     C5    5  -1.677   0.732  -1.461
    1LIG     C6    6  -1.773   0.652  -1.400
    1LIG     C7    7  -1.711   0.876  -1.478
    1LIG     O1    8  -1.811   0.922  -1.421
    1LIG     N1    9  -1.642   0.962  -1.559
    1LIG     C8   10  -1.537   0.947  -1.656
    1LIG     C9   11  -1.586   0.893  -1.789
    1LIG    C10   12  -1.527   0.969  -1.908
    1LIG    C11   13  -1.377   1.000  -1.900
    1LIG    C12   14  -1.285   0.882  -1.867
    1LIG     O2   15  -1.283   0.782  -1.968
    1LIG    C13   16  -1.372   0.671  -1.958
    1LIG    C14   17  -1.328   0.557  -1.860
    1LIG     N2   18  -1.367   0.578  -1.714
    1LIG    C15   19  -1.447   0.486  -1.638
    1LIG     O3   20  -1.441   0.366  -1.666
    1LIG     H1   21  -1.692   1.050  -1.565
    1LIG     H2   22  -1.359   0.672  -1.678
    1LIG    C16   23  -1.181   0.510  -1.900
    1LIG    C17   24  -1.084   0.458  -1.789
    1LIG     N3   25  -1.135   0.334  -1.715
    1LIG     H3   26  -1.236   0.324  -1.736
    1LIG     H4   27  -1.089   0.251  -1.756
    1LIG    C18   28  -1.125   0.329  -1.565
    1LIG    C19   29  -1.067   0.199  -1.513
    1LIG    C20   30  -0.951   0.200  -1.434
    1LIG    C21   31  -0.900   0.081  -1.379
    1LIG    C22   32  -0.963  -0.040  -1.403
    1LIG    C23   33  -1.077  -0.044  -1.482
    1LIG    C24   34  -1.129   0.075  -1.538
    1LIG     O4   35  -1.183   0.415  -2.007
    1LIG     H5   36  -1.277   0.404  -2.035
    1LIG     N4   37  -1.849   0.442  -1.310
    1LIG    C25   38  -1.802   0.329  -1.227
    1LIG      S   39  -2.013   0.450  -1.351
    1LIG     O5   40  -2.022   0.438  -1.495
    1LIG     O6   41  -2.072   0.561  -1.281
    1LIG    C26   42  -2.082   0.299  -1.278
    1LIG     HC   43  -1.635   0.349  -1.465
    1LIG    HC1   44  -1.474   0.737  -1.530
    1LIG    HC2   45  -1.863   0.696  -1.359
    1LIG    HC3   46  -1.463   0.878  -1.616
    1LIG    HC4   47  -1.490   1.044  -1.672
    1LIG    HC5   48  -1.695   0.902  -1.793
    1LIG    HC6   49  -1.559   0.788  -1.797
    1LIG    HC7   50  -1.544   0.910  -1.998
    1LIG    HC8   51  -1.581   1.064  -1.918
    1LIG    HC9   52  -1.346   1.040  -1.997
    1LIG   HC10   53  -1.362   1.077  -1.824
    1LIG   HC11   54  -1.184   0.920  -1.854
    1LIG   HC12   55  -1.318   0.837  -1.774
    1LIG   HC13   56  -1.383   0.628  -2.057
    1LIG   HC14   57  -1.469   0.708  -1.926
    1LIG   HC15   58  -1.391   0.473  -1.891
    1LIG   HC16   59  -1.133   0.598  -1.942
    1LIG   HC17   60  -0.989   0.433  -1.836
    1LIG   HC18   61  -1.068   0.537  -1.717
    1LIG   HC19   62  -1.224   0.342  -1.523
    1LIG   HC20   63  -1.061   0.411  -1.532
    1LIG   HC21   64  -0.900   0.294  -1.414
    1LIG   HC22   65  -0.811   0.083  -1.318
    1LIG   HC23   66  -0.923  -0.131  -1.361
    1LIG   HC24   67  -1.126  -0.139  -1.501
    1LIG   HC25   68  -1.217   0.071  -1.599
    1LIG   HC26   69  -1.696   0.340  -1.208
    1LIG   HC27   70  -1.820   0.236  -1.281
    1LIG   HC28   71  -1.857   0.328  -1.133
    1LIG   HC29   72  -2.188   0.294  -1.301
    1LIG   HC30   73  -2.068   0.302  -1.170
    1LIG   HC31   74  -2.031   0.212  -1.319
   0.00000   0.00000   0.00000
