; Created by cgenff_charmm2gmx.py

[ moleculetype ]
; Name			   nrexcl
LIG				 3

[ atoms ]
;	 nr		  type	resnr residue  atom   cgnr	   charge		mass  typeB    chargeB		massB
; residue	 1 LIG rtp LIG q	qsum
     1      CG311      1    LIG     C1      1      0.010     12.011   ;
     2      NG2S1      1    LIG     N1      2     -0.226     14.007   ;
     3      CG2O1      1    LIG     C2      3      0.302     12.011   ;
     4      OG2D1      1    LIG     O1      4     -0.463     15.999   ;
     5     CG2R61      1    LIG     C3      5     -0.100     12.011   ;
     6     CG2R61      1    LIG     C4      6     -0.067     12.011   ;
     7     CG2R61      1    LIG     C5      7     -0.003     12.011   ;
     8     CG2R61      1    LIG     C6      8     -0.135     12.011   ;
     9     CG2R61      1    LIG     C7      9      0.071     12.011   ;
    10      NG311      1    LIG     N2     10     -0.595     14.007   ;
    11      CG321      1    LIG     C8     11     -0.037     12.011   ;
    12      CG321      1    LIG     C9     12     -0.143     12.011   ;
    13      CG321      1    LIG    C10     13     -0.175     12.011   ;
    14      CG321      1    LIG    C11     14     -0.008     12.011   ;
    15      OG301      1    LIG     O2     15     -0.398     15.999   ;
    16     CG2R61      1    LIG    C12     16      0.226     12.011   ;
    17     CG2R61      1    LIG    C13     17     -0.126     12.011   ;
    18     CG2R61      1    LIG    C14     18     -0.016     12.011   ;
    19      CG321      1    LIG    C15     19     -0.111     12.011   ;
    20     CG2R61      1    LIG    C16     20     -0.123     12.011   ;
    21     CG2R61      1    LIG    C17     21     -0.109     12.011   ;
    22     CG2R61      1    LIG    C18     22     -0.119     12.011   ;
    23     CG2R61      1    LIG    C19     23     -0.072     12.011   ;
    24       HGP1      1    LIG     H1     24      0.262      1.008   ;
    25     HGPAM1      1    LIG     H2     25      0.367      1.008   ;
    26      CG311      1    LIG    C20     26      0.089     12.011   ;
    27      OG311      1    LIG     O3     27     -0.625     15.999   ;
    28       HGP1      1    LIG     H3     28      0.415      1.008   ;
    29      CG324      1    LIG    C21     29      0.195     12.011   ;
    30      NG3P2      1    LIG     N3     30     -0.435     14.007   ;
    31       HGP2      1    LIG     H4     31      0.333      1.008   ;
    32       HGP2      1    LIG     H5     32      0.333      1.008   ;
    33      CG314      1    LIG    C22     33      0.264     12.011   ;
    34     CG2R61      1    LIG    C23     34     -0.137     12.011   ;
    35     CG2R61      1    LIG    C24     35     -0.061     12.011   ;
    36     CG2R61      1    LIG    C25     36      0.082     12.011   ;
    37     CG2R61      1    LIG    C26     37     -0.121     12.011   ;
    38     CG2R61      1    LIG    C27     38     -0.110     12.011   ;
    39     CG2R61      1    LIG    C28     39     -0.056     12.011   ;
    40      CG301      1    LIG    C29     40     -0.018     12.011   ;
    41      CG331      1    LIG    C30     41     -0.289     12.011   ;
    42      CG331      1    LIG    C31     42     -0.289     12.011   ;
    43      CG331      1    LIG    C32     43     -0.289     12.011   ;
    44      CG322      1    LIG    C33     44      0.159     12.011   ;
    45       FGA1      1    LIG      F     45     -0.226     18.998   ;
    46      CG321      1    LIG    C34     46      0.049     12.011   ;
    47      OG301      1    LIG     O4     47     -0.396     15.999   ;
    48      CG331      1    LIG    C35     48     -0.089     12.011   ;
    49       HGA1      1    LIG     HC     49      0.090      1.008   ;
    50      HGR61      1    LIG    HC1     50      0.116      1.008   ;
    51      HGR61      1    LIG    HC2     51      0.116      1.008   ;
    52       HGA2      1    LIG    HC3     52      0.090      1.008   ;
    53       HGA2      1    LIG    HC4     53      0.090      1.008   ;
    54       HGA2      1    LIG    HC5     54      0.090      1.008   ;
    55       HGA2      1    LIG    HC6     55      0.090      1.008   ;
    56       HGA2      1    LIG    HC7     56      0.090      1.008   ;
    57       HGA2      1    LIG    HC8     57      0.090      1.008   ;
    58       HGA2      1    LIG    HC9     58      0.090      1.008   ;
    59       HGA2      1    LIG   HC10     59      0.090      1.008   ;
    60      HGR61      1    LIG   HC11     60      0.116      1.008   ;
    61       HGA2      1    LIG   HC12     61      0.090      1.008   ;
    62       HGA2      1    LIG   HC13     62      0.090      1.008   ;
    63      HGR61      1    LIG   HC14     63      0.116      1.008   ;
    64      HGR61      1    LIG   HC15     64      0.116      1.008   ;
    65      HGR61      1    LIG   HC16     65      0.116      1.008   ;
    66      HGR61      1    LIG   HC17     66      0.116      1.008   ;
    67       HGA1      1    LIG   HC18     67      0.090      1.008   ;
    68       HGA2      1    LIG   HC19     68      0.090      1.008   ;
    69       HGA2      1    LIG   HC20     69      0.090      1.008   ;
    70       HGA1      1    LIG   HC21     70      0.090      1.008   ;
    71      HGR61      1    LIG   HC22     71      0.116      1.008   ;
    72      HGR61      1    LIG   HC23     72      0.116      1.008   ;
    73      HGR61      1    LIG   HC24     73      0.116      1.008   ;
    74      HGR61      1    LIG   HC25     74      0.116      1.008   ;
    75       HGA6      1    LIG   HC26     75      0.062      1.008   ;
    76       HGA6      1    LIG   HC27     76      0.062      1.008   ;
    77       HGA2      1    LIG   HC28     77      0.090      1.008   ;
    78       HGA2      1    LIG   HC29     78      0.090      1.008   ;
    79       HGA3      1    LIG   HC30     79      0.090      1.008   ;
    80       HGA3      1    LIG   HC31     80      0.090      1.008   ;
    81       HGA3      1    LIG   HC32     81      0.090      1.008   ;
    82       HGA3      1    LIG   HC33     82      0.090      1.008   ;
    83       HGA3      1    LIG   HC34     83      0.090      1.008   ;
    84       HGA3      1    LIG   HC35     84      0.090      1.008   ;
    85       HGA3      1    LIG   HC36     85      0.090      1.008   ;
    86       HGA3      1    LIG   HC37     86      0.090      1.008   ;
    87       HGA3      1    LIG   HC38     87      0.090      1.008   ;
    88       HGA3      1    LIG   HC39     88      0.090      1.008   ;
    89       HGA3      1    LIG   HC40     89      0.090      1.008   ;
    90       HGA3      1    LIG   HC41     90      0.090      1.008   ;

[ bonds ]
;	ai	  aj funct			  c0			c1			  c2			c3
    1     2	 1 ;       CG311      NG2S1
    1    26	 1 ;       CG311      CG311
    1    19	 1 ;       CG311      CG321
    1    49	 1 ;       CG311       HGA1
    2    24	 1 ;       NG2S1       HGP1
    2     3	 1 ;       NG2S1      CG2O1
    3     4	 1 ;       CG2O1      OG2D1
    3     5	 1 ;       CG2O1     CG2R61
    5     6	 1 ;      CG2R61     CG2R61
    5    23	 1 ;      CG2R61     CG2R61
    6     7	 1 ;      CG2R61     CG2R61
    6    50	 1 ;      CG2R61      HGR61
    7    46	 1 ;      CG2R61      CG321
    7     8	 1 ;      CG2R61     CG2R61
    8     9	 1 ;      CG2R61     CG2R61
    8    51	 1 ;      CG2R61      HGR61
    9    23	 1 ;      CG2R61     CG2R61
    9    10	 1 ;      CG2R61      NG311
   10    25	 1 ;       NG311     HGPAM1
   10    11	 1 ;       NG311      CG321
   11    12	 1 ;       CG321      CG321
   11    52	 1 ;       CG321       HGA2
   11    53	 1 ;       CG321       HGA2
   12    13	 1 ;       CG321      CG321
   12    54	 1 ;       CG321       HGA2
   12    55	 1 ;       CG321       HGA2
   13    14	 1 ;       CG321      CG321
   13    56	 1 ;       CG321       HGA2
   13    57	 1 ;       CG321       HGA2
   14    15	 1 ;       CG321      OG301
   14    58	 1 ;       CG321       HGA2
   14    59	 1 ;       CG321       HGA2
   15    16	 1 ;       OG301     CG2R61
   16    17	 1 ;      CG2R61     CG2R61
   16    22	 1 ;      CG2R61     CG2R61
   17    18	 1 ;      CG2R61     CG2R61
   17    60	 1 ;      CG2R61      HGR61
   18    19	 1 ;      CG2R61      CG321
   18    20	 1 ;      CG2R61     CG2R61
   19    61	 1 ;       CG321       HGA2
   19    62	 1 ;       CG321       HGA2
   20    21	 1 ;      CG2R61     CG2R61
   20    63	 1 ;      CG2R61      HGR61
   21    22	 1 ;      CG2R61     CG2R61
   21    64	 1 ;      CG2R61      HGR61
   22    65	 1 ;      CG2R61      HGR61
   23    66	 1 ;      CG2R61      HGR61
   26    27	 1 ;       CG311      OG311
   26    29	 1 ;       CG311      CG324
   26    67	 1 ;       CG311       HGA1
   27    28	 1 ;       OG311       HGP1
   29    30	 1 ;       CG324      NG3P2
   29    68	 1 ;       CG324       HGA2
   29    69	 1 ;       CG324       HGA2
   30    31	 1 ;       NG3P2       HGP2
   30    32	 1 ;       NG3P2       HGP2
   30    33	 1 ;       NG3P2      CG314
   33    34	 1 ;       CG314     CG2R61
   33    44	 1 ;       CG314      CG322
   33    70	 1 ;       CG314       HGA1
   34    35	 1 ;      CG2R61     CG2R61
   34    39	 1 ;      CG2R61     CG2R61
   35    36	 1 ;      CG2R61     CG2R61
   35    71	 1 ;      CG2R61      HGR61
   36    40	 1 ;      CG2R61      CG301
   36    37	 1 ;      CG2R61     CG2R61
   37    38	 1 ;      CG2R61     CG2R61
   37    72	 1 ;      CG2R61      HGR61
   38    39	 1 ;      CG2R61     CG2R61
   38    73	 1 ;      CG2R61      HGR61
   39    74	 1 ;      CG2R61      HGR61
   40    43	 1 ;       CG301      CG331
   40    42	 1 ;       CG301      CG331
   40    41	 1 ;       CG301      CG331
   41    82	 1 ;       CG331       HGA3
   41    83	 1 ;       CG331       HGA3
   41    84	 1 ;       CG331       HGA3
   42    79	 1 ;       CG331       HGA3
   42    80	 1 ;       CG331       HGA3
   42    81	 1 ;       CG331       HGA3
   43    88	 1 ;       CG331       HGA3
   43    89	 1 ;       CG331       HGA3
   43    90	 1 ;       CG331       HGA3
   44    45	 1 ;       CG322       FGA1
   44    75	 1 ;       CG322       HGA6
   44    76	 1 ;       CG322       HGA6
   46    47	 1 ;       CG321      OG301
   46    77	 1 ;       CG321       HGA2
   46    78	 1 ;       CG321       HGA2
   47    48	 1 ;       OG301      CG331
   48    85	 1 ;       CG331       HGA3
   48    86	 1 ;       CG331       HGA3
   48    87	 1 ;       CG331       HGA3

[ pairs ]
;	ai	  aj funct			  c0			c1			  c2			c3
    1     4	 1
    1     5	 1
    1    20	 1
    1    17	 1
    1    28	 1
    1    30	 1
    1    68	 1
    1    69	 1
    2    27	 1
    2    29	 1
    2    67	 1
    2    18	 1
    2    61	 1
    2    62	 1
    2     6	 1
    2    23	 1
    3    26	 1
    3    19	 1
    3    49	 1
    3     7	 1
    3    50	 1
    3     9	 1
    3    66	 1
    4    24	 1
    4     6	 1
    4    23	 1
    5    24	 1
    5    46	 1
    5     8	 1
    5    10	 1
    6     9	 1
    6    66	 1
    6    47	 1
    6    77	 1
    6    78	 1
    6    51	 1
    7    23	 1
    7    10	 1
    7    48	 1
    8    50	 1
    8    47	 1
    8    77	 1
    8    78	 1
    8    66	 1
    8    25	 1
    8    11	 1
    9    46	 1
    9    12	 1
    9    52	 1
    9    53	 1
   10    51	 1
   10    66	 1
   10    13	 1
   10    54	 1
   10    55	 1
   11    23	 1
   11    14	 1
   11    56	 1
   11    57	 1
   12    25	 1
   12    15	 1
   12    58	 1
   12    59	 1
   13    52	 1
   13    53	 1
   13    16	 1
   14    54	 1
   14    55	 1
   14    17	 1
   14    22	 1
   15    56	 1
   15    57	 1
   15    18	 1
   15    60	 1
   15    21	 1
   15    65	 1
   16    58	 1
   16    59	 1
   16    19	 1
   16    20	 1
   16    64	 1
   17    21	 1
   17    65	 1
   17    61	 1
   17    62	 1
   17    63	 1
   18    26	 1
   18    49	 1
   18    22	 1
   18    64	 1
   19    24	 1
   19    27	 1
   19    29	 1
   19    67	 1
   19    60	 1
   19    21	 1
   19    63	 1
   20    60	 1
   20    61	 1
   20    62	 1
   20    65	 1
   22    60	 1
   22    63	 1
   23    50	 1
   23    51	 1
   23    25	 1
   24    26	 1
   24    49	 1
   25    52	 1
   25    53	 1
   26    61	 1
   26    62	 1
   26    31	 1
   26    32	 1
   26    33	 1
   27    49	 1
   27    30	 1
   27    68	 1
   27    69	 1
   28    29	 1
   28    67	 1
   29    49	 1
   29    34	 1
   29    44	 1
   29    70	 1
   30    67	 1
   30    35	 1
   30    39	 1
   30    45	 1
   30    75	 1
   30    76	 1
   31    68	 1
   31    69	 1
   31    34	 1
   31    44	 1
   31    70	 1
   32    68	 1
   32    69	 1
   32    34	 1
   32    44	 1
   32    70	 1
   33    68	 1
   33    69	 1
   33    36	 1
   33    71	 1
   33    38	 1
   33    74	 1
   34    45	 1
   34    75	 1
   34    76	 1
   34    40	 1
   34    37	 1
   34    73	 1
   35    44	 1
   35    70	 1
   35    38	 1
   35    74	 1
   35    43	 1
   35    42	 1
   35    41	 1
   35    72	 1
   36    39	 1
   36    73	 1
   36    88	 1
   36    89	 1
   36    90	 1
   36    79	 1
   36    80	 1
   36    81	 1
   36    82	 1
   36    83	 1
   36    84	 1
   37    71	 1
   37    43	 1
   37    42	 1
   37    41	 1
   37    74	 1
   38    40	 1
   39    44	 1
   39    70	 1
   39    71	 1
   39    72	 1
   40    71	 1
   40    72	 1
   41    88	 1
   41    89	 1
   41    90	 1
   41    79	 1
   41    80	 1
   41    81	 1
   42    88	 1
   42    89	 1
   42    90	 1
   42    82	 1
   42    83	 1
   42    84	 1
   43    79	 1
   43    80	 1
   43    81	 1
   43    82	 1
   43    83	 1
   43    84	 1
   45    70	 1
   46    50	 1
   46    51	 1
   46    85	 1
   46    86	 1
   46    87	 1
   48    77	 1
   48    78	 1
   49    67	 1
   49    61	 1
   49    62	 1
   52    54	 1
   52    55	 1
   53    54	 1
   53    55	 1
   54    56	 1
   54    57	 1
   55    56	 1
   55    57	 1
   56    58	 1
   56    59	 1
   57    58	 1
   57    59	 1
   63    64	 1
   64    65	 1
   67    68	 1
   67    69	 1
   70    75	 1
   70    76	 1
   72    73	 1
   73    74	 1

[ angles ]
;	ai	  aj	ak funct			c0			  c1			c2			  c3
    2     1    26	5 ;      NG2S1      CG311      CG311
    2     1    19	5 ;      NG2S1      CG311      CG321
    2     1    49	5 ;      NG2S1      CG311       HGA1
   26     1    19	5 ;      CG311      CG311      CG321
   26     1    49	5 ;      CG311      CG311       HGA1
   19     1    49	5 ;      CG321      CG311       HGA1
   24     2     3	5 ;       HGP1      NG2S1      CG2O1
   24     2     1	5 ;       HGP1      NG2S1      CG311
    3     2     1	5 ;      CG2O1      NG2S1      CG311
    4     3     2	5 ;      OG2D1      CG2O1      NG2S1
    4     3     5	5 ;      OG2D1      CG2O1     CG2R61
    2     3     5	5 ;      NG2S1      CG2O1     CG2R61
    3     5     6	5 ;      CG2O1     CG2R61     CG2R61
    3     5    23	5 ;      CG2O1     CG2R61     CG2R61
    6     5    23	5 ;     CG2R61     CG2R61     CG2R61
    5     6     7	5 ;     CG2R61     CG2R61     CG2R61
    5     6    50	5 ;     CG2R61     CG2R61      HGR61
    7     6    50	5 ;     CG2R61     CG2R61      HGR61
    6     7    46	5 ;     CG2R61     CG2R61      CG321
    6     7     8	5 ;     CG2R61     CG2R61     CG2R61
   46     7     8	5 ;      CG321     CG2R61     CG2R61
    7     8     9	5 ;     CG2R61     CG2R61     CG2R61
    7     8    51	5 ;     CG2R61     CG2R61      HGR61
    9     8    51	5 ;     CG2R61     CG2R61      HGR61
   23     9     8	5 ;     CG2R61     CG2R61     CG2R61
   23     9    10	5 ;     CG2R61     CG2R61      NG311
    8     9    10	5 ;     CG2R61     CG2R61      NG311
    9    10    25	5 ;     CG2R61      NG311     HGPAM1
    9    10    11	5 ;     CG2R61      NG311      CG321
   25    10    11	5 ;     HGPAM1      NG311      CG321
   10    11    12	5 ;      NG311      CG321      CG321
   10    11    52	5 ;      NG311      CG321       HGA2
   10    11    53	5 ;      NG311      CG321       HGA2
   12    11    52	5 ;      CG321      CG321       HGA2
   12    11    53	5 ;      CG321      CG321       HGA2
   52    11    53	5 ;       HGA2      CG321       HGA2
   11    12    13	5 ;      CG321      CG321      CG321
   11    12    54	5 ;      CG321      CG321       HGA2
   11    12    55	5 ;      CG321      CG321       HGA2
   13    12    54	5 ;      CG321      CG321       HGA2
   13    12    55	5 ;      CG321      CG321       HGA2
   54    12    55	5 ;       HGA2      CG321       HGA2
   12    13    14	5 ;      CG321      CG321      CG321
   12    13    56	5 ;      CG321      CG321       HGA2
   12    13    57	5 ;      CG321      CG321       HGA2
   14    13    56	5 ;      CG321      CG321       HGA2
   14    13    57	5 ;      CG321      CG321       HGA2
   56    13    57	5 ;       HGA2      CG321       HGA2
   13    14    15	5 ;      CG321      CG321      OG301
   13    14    58	5 ;      CG321      CG321       HGA2
   13    14    59	5 ;      CG321      CG321       HGA2
   15    14    58	5 ;      OG301      CG321       HGA2
   15    14    59	5 ;      OG301      CG321       HGA2
   58    14    59	5 ;       HGA2      CG321       HGA2
   16    15    14	5 ;     CG2R61      OG301      CG321
   17    16    22	5 ;     CG2R61     CG2R61     CG2R61
   17    16    15	5 ;     CG2R61     CG2R61      OG301
   22    16    15	5 ;     CG2R61     CG2R61      OG301
   18    17    16	5 ;     CG2R61     CG2R61     CG2R61
   18    17    60	5 ;     CG2R61     CG2R61      HGR61
   16    17    60	5 ;     CG2R61     CG2R61      HGR61
   19    18    20	5 ;      CG321     CG2R61     CG2R61
   19    18    17	5 ;      CG321     CG2R61     CG2R61
   20    18    17	5 ;     CG2R61     CG2R61     CG2R61
    1    19    18	5 ;      CG311      CG321     CG2R61
    1    19    61	5 ;      CG311      CG321       HGA2
    1    19    62	5 ;      CG311      CG321       HGA2
   18    19    61	5 ;     CG2R61      CG321       HGA2
   18    19    62	5 ;     CG2R61      CG321       HGA2
   61    19    62	5 ;       HGA2      CG321       HGA2
   18    20    21	5 ;     CG2R61     CG2R61     CG2R61
   18    20    63	5 ;     CG2R61     CG2R61      HGR61
   21    20    63	5 ;     CG2R61     CG2R61      HGR61
   20    21    22	5 ;     CG2R61     CG2R61     CG2R61
   20    21    64	5 ;     CG2R61     CG2R61      HGR61
   22    21    64	5 ;     CG2R61     CG2R61      HGR61
   21    22    16	5 ;     CG2R61     CG2R61     CG2R61
   21    22    65	5 ;     CG2R61     CG2R61      HGR61
   16    22    65	5 ;     CG2R61     CG2R61      HGR61
    5    23     9	5 ;     CG2R61     CG2R61     CG2R61
    5    23    66	5 ;     CG2R61     CG2R61      HGR61
    9    23    66	5 ;     CG2R61     CG2R61      HGR61
   27    26    29	5 ;      OG311      CG311      CG324
   27    26     1	5 ;      OG311      CG311      CG311
   27    26    67	5 ;      OG311      CG311       HGA1
   29    26     1	5 ;      CG324      CG311      CG311
   29    26    67	5 ;      CG324      CG311       HGA1
    1    26    67	5 ;      CG311      CG311       HGA1
   28    27    26	5 ;       HGP1      OG311      CG311
   30    29    26	5 ;      NG3P2      CG324      CG311
   30    29    68	5 ;      NG3P2      CG324       HGA2
   30    29    69	5 ;      NG3P2      CG324       HGA2
   26    29    68	5 ;      CG311      CG324       HGA2
   26    29    69	5 ;      CG311      CG324       HGA2
   68    29    69	5 ;       HGA2      CG324       HGA2
   29    30    31	5 ;      CG324      NG3P2       HGP2
   29    30    32	5 ;      CG324      NG3P2       HGP2
   29    30    33	5 ;      CG324      NG3P2      CG314
   31    30    32	5 ;       HGP2      NG3P2       HGP2
   31    30    33	5 ;       HGP2      NG3P2      CG314
   32    30    33	5 ;       HGP2      NG3P2      CG314
   30    33    34	5 ;      NG3P2      CG314     CG2R61
   30    33    44	5 ;      NG3P2      CG314      CG322
   30    33    70	5 ;      NG3P2      CG314       HGA1
   34    33    44	5 ;     CG2R61      CG314      CG322
   34    33    70	5 ;     CG2R61      CG314       HGA1
   44    33    70	5 ;      CG322      CG314       HGA1
   35    34    33	5 ;     CG2R61     CG2R61      CG314
   35    34    39	5 ;     CG2R61     CG2R61     CG2R61
   33    34    39	5 ;      CG314     CG2R61     CG2R61
   36    35    34	5 ;     CG2R61     CG2R61     CG2R61
   36    35    71	5 ;     CG2R61     CG2R61      HGR61
   34    35    71	5 ;     CG2R61     CG2R61      HGR61
   40    36    35	5 ;      CG301     CG2R61     CG2R61
   40    36    37	5 ;      CG301     CG2R61     CG2R61
   35    36    37	5 ;     CG2R61     CG2R61     CG2R61
   36    37    38	5 ;     CG2R61     CG2R61     CG2R61
   36    37    72	5 ;     CG2R61     CG2R61      HGR61
   38    37    72	5 ;     CG2R61     CG2R61      HGR61
   37    38    39	5 ;     CG2R61     CG2R61     CG2R61
   37    38    73	5 ;     CG2R61     CG2R61      HGR61
   39    38    73	5 ;     CG2R61     CG2R61      HGR61
   34    39    38	5 ;     CG2R61     CG2R61     CG2R61
   34    39    74	5 ;     CG2R61     CG2R61      HGR61
   38    39    74	5 ;     CG2R61     CG2R61      HGR61
   43    40    36	5 ;      CG331      CG301     CG2R61
   43    40    42	5 ;      CG331      CG301      CG331
   43    40    41	5 ;      CG331      CG301      CG331
   36    40    42	5 ;     CG2R61      CG301      CG331
   36    40    41	5 ;     CG2R61      CG301      CG331
   42    40    41	5 ;      CG331      CG301      CG331
   40    41    82	5 ;      CG301      CG331       HGA3
   40    41    83	5 ;      CG301      CG331       HGA3
   40    41    84	5 ;      CG301      CG331       HGA3
   82    41    83	5 ;       HGA3      CG331       HGA3
   82    41    84	5 ;       HGA3      CG331       HGA3
   83    41    84	5 ;       HGA3      CG331       HGA3
   40    42    79	5 ;      CG301      CG331       HGA3
   40    42    80	5 ;      CG301      CG331       HGA3
   40    42    81	5 ;      CG301      CG331       HGA3
   79    42    80	5 ;       HGA3      CG331       HGA3
   79    42    81	5 ;       HGA3      CG331       HGA3
   80    42    81	5 ;       HGA3      CG331       HGA3
   40    43    88	5 ;      CG301      CG331       HGA3
   40    43    89	5 ;      CG301      CG331       HGA3
   40    43    90	5 ;      CG301      CG331       HGA3
   88    43    89	5 ;       HGA3      CG331       HGA3
   88    43    90	5 ;       HGA3      CG331       HGA3
   89    43    90	5 ;       HGA3      CG331       HGA3
   33    44    45	5 ;      CG314      CG322       FGA1
   33    44    75	5 ;      CG314      CG322       HGA6
   33    44    76	5 ;      CG314      CG322       HGA6
   45    44    75	5 ;       FGA1      CG322       HGA6
   45    44    76	5 ;       FGA1      CG322       HGA6
   75    44    76	5 ;       HGA6      CG322       HGA6
   47    46     7	5 ;      OG301      CG321     CG2R61
   47    46    77	5 ;      OG301      CG321       HGA2
   47    46    78	5 ;      OG301      CG321       HGA2
    7    46    77	5 ;     CG2R61      CG321       HGA2
    7    46    78	5 ;     CG2R61      CG321       HGA2
   77    46    78	5 ;       HGA2      CG321       HGA2
   48    47    46	5 ;      CG331      OG301      CG321
   47    48    85	5 ;      OG301      CG331       HGA3
   47    48    86	5 ;      OG301      CG331       HGA3
   47    48    87	5 ;      OG301      CG331       HGA3
   85    48    86	5 ;       HGA3      CG331       HGA3
   85    48    87	5 ;       HGA3      CG331       HGA3
   86    48    87	5 ;       HGA3      CG331       HGA3

[ dihedrals ]
;	ai	  aj	ak	  al funct			  c0			c1			  c2			c3			  c4			c5
   26     1     2    24	 9 ;      CG311      CG311      NG2S1       HGP1
   26     1     2     3	 9 ;      CG311      CG311      NG2S1      CG2O1
   19     1     2    24	 9 ;      CG321      CG311      NG2S1       HGP1
   19     1     2     3	 9 ;      CG321      CG311      NG2S1      CG2O1
   49     1     2    24	 9 ;       HGA1      CG311      NG2S1       HGP1
   49     1     2     3	 9 ;       HGA1      CG311      NG2S1      CG2O1
    2     1    26    27	 9 ;      NG2S1      CG311      CG311      OG311
    2     1    26    29	 9 ;      NG2S1      CG311      CG311      CG324
    2     1    26    67	 9 ;      NG2S1      CG311      CG311       HGA1
   19     1    26    27	 9 ;      CG321      CG311      CG311      OG311
   19     1    26    29	 9 ;      CG321      CG311      CG311      CG324
   19     1    26    67	 9 ;      CG321      CG311      CG311       HGA1
   49     1    26    27	 9 ;       HGA1      CG311      CG311      OG311
   49     1    26    29	 9 ;       HGA1      CG311      CG311      CG324
   49     1    26    67	 9 ;       HGA1      CG311      CG311       HGA1
    2     1    19    18	 9 ;      NG2S1      CG311      CG321     CG2R61
    2     1    19    61	 9 ;      NG2S1      CG311      CG321       HGA2
    2     1    19    62	 9 ;      NG2S1      CG311      CG321       HGA2
   26     1    19    18	 9 ;      CG311      CG311      CG321     CG2R61
   26     1    19    61	 9 ;      CG311      CG311      CG321       HGA2
   26     1    19    62	 9 ;      CG311      CG311      CG321       HGA2
   49     1    19    18	 9 ;       HGA1      CG311      CG321     CG2R61
   49     1    19    61	 9 ;       HGA1      CG311      CG321       HGA2
   49     1    19    62	 9 ;       HGA1      CG311      CG321       HGA2
   24     2     3     4	 9 ;       HGP1      NG2S1      CG2O1      OG2D1
   24     2     3     5	 9 ;       HGP1      NG2S1      CG2O1     CG2R61
    1     2     3     4	 9 ;      CG311      NG2S1      CG2O1      OG2D1
    1     2     3     5	 9 ;      CG311      NG2S1      CG2O1     CG2R61
    4     3     5     6	 9 ;      OG2D1      CG2O1     CG2R61     CG2R61
    4     3     5    23	 9 ;      OG2D1      CG2O1     CG2R61     CG2R61
    2     3     5     6	 9 ;      NG2S1      CG2O1     CG2R61     CG2R61
    2     3     5    23	 9 ;      NG2S1      CG2O1     CG2R61     CG2R61
    3     5     6     7	 9 ;      CG2O1     CG2R61     CG2R61     CG2R61
    3     5     6    50	 9 ;      CG2O1     CG2R61     CG2R61      HGR61
   23     5     6     7	 9 ;     CG2R61     CG2R61     CG2R61     CG2R61
   23     5     6    50	 9 ;     CG2R61     CG2R61     CG2R61      HGR61
    3     5    23     9	 9 ;      CG2O1     CG2R61     CG2R61     CG2R61
    3     5    23    66	 9 ;      CG2O1     CG2R61     CG2R61      HGR61
    6     5    23     9	 9 ;     CG2R61     CG2R61     CG2R61     CG2R61
    6     5    23    66	 9 ;     CG2R61     CG2R61     CG2R61      HGR61
    5     6     7    46	 9 ;     CG2R61     CG2R61     CG2R61      CG321
    5     6     7     8	 9 ;     CG2R61     CG2R61     CG2R61     CG2R61
   50     6     7    46	 9 ;      HGR61     CG2R61     CG2R61      CG321
   50     6     7     8	 9 ;      HGR61     CG2R61     CG2R61     CG2R61
    6     7    46    47	 9 ;     CG2R61     CG2R61      CG321      OG301
    6     7    46    77	 9 ;     CG2R61     CG2R61      CG321       HGA2
    6     7    46    78	 9 ;     CG2R61     CG2R61      CG321       HGA2
    8     7    46    47	 9 ;     CG2R61     CG2R61      CG321      OG301
    8     7    46    77	 9 ;     CG2R61     CG2R61      CG321       HGA2
    8     7    46    78	 9 ;     CG2R61     CG2R61      CG321       HGA2
    6     7     8     9	 9 ;     CG2R61     CG2R61     CG2R61     CG2R61
    6     7     8    51	 9 ;     CG2R61     CG2R61     CG2R61      HGR61
   46     7     8     9	 9 ;      CG321     CG2R61     CG2R61     CG2R61
   46     7     8    51	 9 ;      CG321     CG2R61     CG2R61      HGR61
    7     8     9    23	 9 ;     CG2R61     CG2R61     CG2R61     CG2R61
    7     8     9    10	 9 ;     CG2R61     CG2R61     CG2R61      NG311
   51     8     9    23	 9 ;      HGR61     CG2R61     CG2R61     CG2R61
   51     8     9    10	 9 ;      HGR61     CG2R61     CG2R61      NG311
    8     9    23     5	 9 ;     CG2R61     CG2R61     CG2R61     CG2R61
    8     9    23    66	 9 ;     CG2R61     CG2R61     CG2R61      HGR61
   10     9    23     5	 9 ;      NG311     CG2R61     CG2R61     CG2R61
   10     9    23    66	 9 ;      NG311     CG2R61     CG2R61      HGR61
   23     9    10    25	 9 ;     CG2R61     CG2R61      NG311     HGPAM1
   23     9    10    11	 9 ;     CG2R61     CG2R61      NG311      CG321
    8     9    10    25	 9 ;     CG2R61     CG2R61      NG311     HGPAM1
    8     9    10    11	 9 ;     CG2R61     CG2R61      NG311      CG321
    9    10    11    12	 9 ;     CG2R61      NG311      CG321      CG321
    9    10    11    52	 9 ;     CG2R61      NG311      CG321       HGA2
    9    10    11    53	 9 ;     CG2R61      NG311      CG321       HGA2
   25    10    11    12	 9 ;     HGPAM1      NG311      CG321      CG321
   25    10    11    52	 9 ;     HGPAM1      NG311      CG321       HGA2
   25    10    11    53	 9 ;     HGPAM1      NG311      CG321       HGA2
   10    11    12    13	 9 ;      NG311      CG321      CG321      CG321
   10    11    12    54	 9 ;      NG311      CG321      CG321       HGA2
   10    11    12    55	 9 ;      NG311      CG321      CG321       HGA2
   52    11    12    13	 9 ;       HGA2      CG321      CG321      CG321
   52    11    12    54	 9 ;       HGA2      CG321      CG321       HGA2
   52    11    12    55	 9 ;       HGA2      CG321      CG321       HGA2
   53    11    12    13	 9 ;       HGA2      CG321      CG321      CG321
   53    11    12    54	 9 ;       HGA2      CG321      CG321       HGA2
   53    11    12    55	 9 ;       HGA2      CG321      CG321       HGA2
   11    12    13    14	 9 ;      CG321      CG321      CG321      CG321
   11    12    13    56	 9 ;      CG321      CG321      CG321       HGA2
   11    12    13    57	 9 ;      CG321      CG321      CG321       HGA2
   54    12    13    14	 9 ;       HGA2      CG321      CG321      CG321
   54    12    13    56	 9 ;       HGA2      CG321      CG321       HGA2
   54    12    13    57	 9 ;       HGA2      CG321      CG321       HGA2
   55    12    13    14	 9 ;       HGA2      CG321      CG321      CG321
   55    12    13    56	 9 ;       HGA2      CG321      CG321       HGA2
   55    12    13    57	 9 ;       HGA2      CG321      CG321       HGA2
   12    13    14    15	 9 ;      CG321      CG321      CG321      OG301
   12    13    14    58	 9 ;      CG321      CG321      CG321       HGA2
   12    13    14    59	 9 ;      CG321      CG321      CG321       HGA2
   56    13    14    15	 9 ;       HGA2      CG321      CG321      OG301
   56    13    14    58	 9 ;       HGA2      CG321      CG321       HGA2
   56    13    14    59	 9 ;       HGA2      CG321      CG321       HGA2
   57    13    14    15	 9 ;       HGA2      CG321      CG321      OG301
   57    13    14    58	 9 ;       HGA2      CG321      CG321       HGA2
   57    13    14    59	 9 ;       HGA2      CG321      CG321       HGA2
   13    14    15    16	 9 ;      CG321      CG321      OG301     CG2R61
   58    14    15    16	 9 ;       HGA2      CG321      OG301     CG2R61
   59    14    15    16	 9 ;       HGA2      CG321      OG301     CG2R61
   14    15    16    17	 9 ;      CG321      OG301     CG2R61     CG2R61
   14    15    16    22	 9 ;      CG321      OG301     CG2R61     CG2R61
   22    16    17    18	 9 ;     CG2R61     CG2R61     CG2R61     CG2R61
   22    16    17    60	 9 ;     CG2R61     CG2R61     CG2R61      HGR61
   15    16    17    18	 9 ;      OG301     CG2R61     CG2R61     CG2R61
   15    16    17    60	 9 ;      OG301     CG2R61     CG2R61      HGR61
   17    16    22    21	 9 ;     CG2R61     CG2R61     CG2R61     CG2R61
   17    16    22    65	 9 ;     CG2R61     CG2R61     CG2R61      HGR61
   15    16    22    21	 9 ;      OG301     CG2R61     CG2R61     CG2R61
   15    16    22    65	 9 ;      OG301     CG2R61     CG2R61      HGR61
   16    17    18    19	 9 ;     CG2R61     CG2R61     CG2R61      CG321
   16    17    18    20	 9 ;     CG2R61     CG2R61     CG2R61     CG2R61
   60    17    18    19	 9 ;      HGR61     CG2R61     CG2R61      CG321
   60    17    18    20	 9 ;      HGR61     CG2R61     CG2R61     CG2R61
   20    18    19     1	 9 ;     CG2R61     CG2R61      CG321      CG311
   20    18    19    61	 9 ;     CG2R61     CG2R61      CG321       HGA2
   20    18    19    62	 9 ;     CG2R61     CG2R61      CG321       HGA2
   17    18    19     1	 9 ;     CG2R61     CG2R61      CG321      CG311
   17    18    19    61	 9 ;     CG2R61     CG2R61      CG321       HGA2
   17    18    19    62	 9 ;     CG2R61     CG2R61      CG321       HGA2
   19    18    20    21	 9 ;      CG321     CG2R61     CG2R61     CG2R61
   19    18    20    63	 9 ;      CG321     CG2R61     CG2R61      HGR61
   17    18    20    21	 9 ;     CG2R61     CG2R61     CG2R61     CG2R61
   17    18    20    63	 9 ;     CG2R61     CG2R61     CG2R61      HGR61
   18    20    21    22	 9 ;     CG2R61     CG2R61     CG2R61     CG2R61
   18    20    21    64	 9 ;     CG2R61     CG2R61     CG2R61      HGR61
   63    20    21    22	 9 ;      HGR61     CG2R61     CG2R61     CG2R61
   63    20    21    64	 9 ;      HGR61     CG2R61     CG2R61      HGR61
   20    21    22    16	 9 ;     CG2R61     CG2R61     CG2R61     CG2R61
   20    21    22    65	 9 ;     CG2R61     CG2R61     CG2R61      HGR61
   64    21    22    16	 9 ;      HGR61     CG2R61     CG2R61     CG2R61
   64    21    22    65	 9 ;      HGR61     CG2R61     CG2R61      HGR61
   29    26    27    28	 9 ;      CG324      CG311      OG311       HGP1
    1    26    27    28	 9 ;      CG311      CG311      OG311       HGP1
   67    26    27    28	 9 ;       HGA1      CG311      OG311       HGP1
   27    26    29    30	 9 ;      OG311      CG311      CG324      NG3P2
   27    26    29    68	 9 ;      OG311      CG311      CG324       HGA2
   27    26    29    69	 9 ;      OG311      CG311      CG324       HGA2
    1    26    29    30	 9 ;      CG311      CG311      CG324      NG3P2
    1    26    29    68	 9 ;      CG311      CG311      CG324       HGA2
    1    26    29    69	 9 ;      CG311      CG311      CG324       HGA2
   67    26    29    30	 9 ;       HGA1      CG311      CG324      NG3P2
   67    26    29    68	 9 ;       HGA1      CG311      CG324       HGA2
   67    26    29    69	 9 ;       HGA1      CG311      CG324       HGA2
   26    29    30    31	 9 ;      CG311      CG324      NG3P2       HGP2
   26    29    30    32	 9 ;      CG311      CG324      NG3P2       HGP2
   26    29    30    33	 9 ;      CG311      CG324      NG3P2      CG314
   68    29    30    31	 9 ;       HGA2      CG324      NG3P2       HGP2
   68    29    30    32	 9 ;       HGA2      CG324      NG3P2       HGP2
   68    29    30    33	 9 ;       HGA2      CG324      NG3P2      CG314
   69    29    30    31	 9 ;       HGA2      CG324      NG3P2       HGP2
   69    29    30    32	 9 ;       HGA2      CG324      NG3P2       HGP2
   69    29    30    33	 9 ;       HGA2      CG324      NG3P2      CG314
   29    30    33    34	 9 ;      CG324      NG3P2      CG314     CG2R61
   29    30    33    44	 9 ;      CG324      NG3P2      CG314      CG322
   29    30    33    70	 9 ;      CG324      NG3P2      CG314       HGA1
   31    30    33    34	 9 ;       HGP2      NG3P2      CG314     CG2R61
   31    30    33    44	 9 ;       HGP2      NG3P2      CG314      CG322
   31    30    33    70	 9 ;       HGP2      NG3P2      CG314       HGA1
   32    30    33    34	 9 ;       HGP2      NG3P2      CG314     CG2R61
   32    30    33    44	 9 ;       HGP2      NG3P2      CG314      CG322
   32    30    33    70	 9 ;       HGP2      NG3P2      CG314       HGA1
   30    33    34    35	 9 ;      NG3P2      CG314     CG2R61     CG2R61
   30    33    34    39	 9 ;      NG3P2      CG314     CG2R61     CG2R61
   44    33    34    35	 9 ;      CG322      CG314     CG2R61     CG2R61
   44    33    34    39	 9 ;      CG322      CG314     CG2R61     CG2R61
   70    33    34    35	 9 ;       HGA1      CG314     CG2R61     CG2R61
   70    33    34    39	 9 ;       HGA1      CG314     CG2R61     CG2R61
   30    33    44    45	 9 ;      NG3P2      CG314      CG322       FGA1
   30    33    44    75	 9 ;      NG3P2      CG314      CG322       HGA6
   30    33    44    76	 9 ;      NG3P2      CG314      CG322       HGA6
   34    33    44    45	 9 ;     CG2R61      CG314      CG322       FGA1
   34    33    44    75	 9 ;     CG2R61      CG314      CG322       HGA6
   34    33    44    76	 9 ;     CG2R61      CG314      CG322       HGA6
   70    33    44    45	 9 ;       HGA1      CG314      CG322       FGA1
   70    33    44    75	 9 ;       HGA1      CG314      CG322       HGA6
   70    33    44    76	 9 ;       HGA1      CG314      CG322       HGA6
   33    34    35    36	 9 ;      CG314     CG2R61     CG2R61     CG2R61
   33    34    35    71	 9 ;      CG314     CG2R61     CG2R61      HGR61
   39    34    35    36	 9 ;     CG2R61     CG2R61     CG2R61     CG2R61
   39    34    35    71	 9 ;     CG2R61     CG2R61     CG2R61      HGR61
   35    34    39    38	 9 ;     CG2R61     CG2R61     CG2R61     CG2R61
   35    34    39    74	 9 ;     CG2R61     CG2R61     CG2R61      HGR61
   33    34    39    38	 9 ;      CG314     CG2R61     CG2R61     CG2R61
   33    34    39    74	 9 ;      CG314     CG2R61     CG2R61      HGR61
   34    35    36    40	 9 ;     CG2R61     CG2R61     CG2R61      CG301
   34    35    36    37	 9 ;     CG2R61     CG2R61     CG2R61     CG2R61
   71    35    36    40	 9 ;      HGR61     CG2R61     CG2R61      CG301
   71    35    36    37	 9 ;      HGR61     CG2R61     CG2R61     CG2R61
   35    36    40    43	 9 ;     CG2R61     CG2R61      CG301      CG331
   35    36    40    42	 9 ;     CG2R61     CG2R61      CG301      CG331
   35    36    40    41	 9 ;     CG2R61     CG2R61      CG301      CG331
   37    36    40    43	 9 ;     CG2R61     CG2R61      CG301      CG331
   37    36    40    42	 9 ;     CG2R61     CG2R61      CG301      CG331
   37    36    40    41	 9 ;     CG2R61     CG2R61      CG301      CG331
   40    36    37    38	 9 ;      CG301     CG2R61     CG2R61     CG2R61
   40    36    37    72	 9 ;      CG301     CG2R61     CG2R61      HGR61
   35    36    37    38	 9 ;     CG2R61     CG2R61     CG2R61     CG2R61
   35    36    37    72	 9 ;     CG2R61     CG2R61     CG2R61      HGR61
   36    37    38    39	 9 ;     CG2R61     CG2R61     CG2R61     CG2R61
   36    37    38    73	 9 ;     CG2R61     CG2R61     CG2R61      HGR61
   72    37    38    39	 9 ;      HGR61     CG2R61     CG2R61     CG2R61
   72    37    38    73	 9 ;      HGR61     CG2R61     CG2R61      HGR61
   37    38    39    34	 9 ;     CG2R61     CG2R61     CG2R61     CG2R61
   37    38    39    74	 9 ;     CG2R61     CG2R61     CG2R61      HGR61
   73    38    39    34	 9 ;      HGR61     CG2R61     CG2R61     CG2R61
   73    38    39    74	 9 ;      HGR61     CG2R61     CG2R61      HGR61
   36    40    43    88	 9 ;     CG2R61      CG301      CG331       HGA3
   36    40    43    89	 9 ;     CG2R61      CG301      CG331       HGA3
   36    40    43    90	 9 ;     CG2R61      CG301      CG331       HGA3
   42    40    43    88	 9 ;      CG331      CG301      CG331       HGA3
   42    40    43    89	 9 ;      CG331      CG301      CG331       HGA3
   42    40    43    90	 9 ;      CG331      CG301      CG331       HGA3
   41    40    43    88	 9 ;      CG331      CG301      CG331       HGA3
   41    40    43    89	 9 ;      CG331      CG301      CG331       HGA3
   41    40    43    90	 9 ;      CG331      CG301      CG331       HGA3
   43    40    42    79	 9 ;      CG331      CG301      CG331       HGA3
   43    40    42    80	 9 ;      CG331      CG301      CG331       HGA3
   43    40    42    81	 9 ;      CG331      CG301      CG331       HGA3
   36    40    42    79	 9 ;     CG2R61      CG301      CG331       HGA3
   36    40    42    80	 9 ;     CG2R61      CG301      CG331       HGA3
   36    40    42    81	 9 ;     CG2R61      CG301      CG331       HGA3
   41    40    42    79	 9 ;      CG331      CG301      CG331       HGA3
   41    40    42    80	 9 ;      CG331      CG301      CG331       HGA3
   41    40    42    81	 9 ;      CG331      CG301      CG331       HGA3
   43    40    41    82	 9 ;      CG331      CG301      CG331       HGA3
   43    40    41    83	 9 ;      CG331      CG301      CG331       HGA3
   43    40    41    84	 9 ;      CG331      CG301      CG331       HGA3
   36    40    41    82	 9 ;     CG2R61      CG301      CG331       HGA3
   36    40    41    83	 9 ;     CG2R61      CG301      CG331       HGA3
   36    40    41    84	 9 ;     CG2R61      CG301      CG331       HGA3
   42    40    41    82	 9 ;      CG331      CG301      CG331       HGA3
   42    40    41    83	 9 ;      CG331      CG301      CG331       HGA3
   42    40    41    84	 9 ;      CG331      CG301      CG331       HGA3
    7    46    47    48	 9 ;     CG2R61      CG321      OG301      CG331
   77    46    47    48	 9 ;       HGA2      CG321      OG301      CG331
   78    46    47    48	 9 ;       HGA2      CG321      OG301      CG331
   46    47    48    85	 9 ;      CG321      OG301      CG331       HGA3
   46    47    48    86	 9 ;      CG321      OG301      CG331       HGA3
   46    47    48    87	 9 ;      CG321      OG301      CG331       HGA3

[ dihedrals ]
;	ai	  aj	ak	  al funct			  c0			c1			  c2			c3
    3     5     2     4	 2

