Guyana Rwanda Oman Macau Angola Cameroon Senegal
   90
    1LIG     C1    1  -1.597   0.579  -1.822
    1LIG     N1    2  -1.448   0.622  -1.830
    1LIG     C2    3  -1.350   0.710  -1.800
    1LIG     O1    4  -1.234   0.673  -1.817
    1LIG     C3    5  -1.376   0.842  -1.746
    1LIG     C4    6  -1.401   0.933  -1.846
    1LIG     C5    7  -1.527   0.990  -1.846
    1LIG     C6    8  -1.609   0.972  -1.731
    1LIG     C7    9  -1.561   0.904  -1.615
    1LIG     N2   10  -1.640   0.871  -1.503
    1LIG     C8   11  -1.741   0.769  -1.531
    1LIG     C9   12  -1.709   0.624  -1.489
    1LIG    C10   13  -1.808   0.555  -1.394
    1LIG    C11   14  -1.957   0.565  -1.430
    1LIG     O2   15  -2.007   0.473  -1.528
    1LIG    C12   16  -1.993   0.492  -1.663
    1LIG    C13   17  -1.916   0.591  -1.723
    1LIG    C14   18  -1.862   0.580  -1.853
    1LIG    C15   19  -1.726   0.647  -1.892
    1LIG    C16   20  -1.932   0.490  -1.937
    1LIG    C17   21  -2.029   0.405  -1.883
    1LIG    C18   22  -2.053   0.399  -1.746
    1LIG    C19   23  -1.438   0.841  -1.623
    1LIG     H1   24  -1.391   0.539  -1.816
    1LIG     H2   25  -1.584   0.848  -1.421
    1LIG    C20   26  -1.584   0.430  -1.865
    1LIG     O3   27  -1.594   0.393  -2.001
    1LIG     H3   28  -1.635   0.466  -2.051
    1LIG    C21   29  -1.448   0.377  -1.814
    1LIG     N3   30  -1.476   0.268  -1.719
    1LIG     H4   31  -1.385   0.222  -1.700
    1LIG     H5   32  -1.534   0.196  -1.764
    1LIG    C22   33  -1.545   0.307  -1.591
    1LIG    C23   34  -1.439   0.299  -1.483
    1LIG    C24   35  -1.397   0.170  -1.444
    1LIG    C25   36  -1.316   0.149  -1.331
    1LIG    C26   37  -1.271   0.264  -1.263
    1LIG    C27   38  -1.308   0.392  -1.304
    1LIG    C28   39  -1.394   0.410  -1.411
    1LIG    C29   40  -1.279   0.008  -1.282
    1LIG    C30   41  -1.271  -0.004  -1.129
    1LIG    C31   42  -1.384  -0.093  -1.333
    1LIG    C32   43  -1.141  -0.031  -1.339
    1LIG    C33   44  -1.671   0.220  -1.570
    1LIG      F   45  -1.766   0.259  -1.658
    1LIG    C34   46  -1.570   1.039  -1.982
    1LIG     O4   47  -1.466   1.080  -2.067
    1LIG    C35   48  -1.490   1.032  -2.200
    1LIG     HC   49  -1.621   0.576  -1.716
    1LIG    HC1   50  -1.327   0.957  -1.921
    1LIG    HC2   51  -1.709   1.011  -1.732
    1LIG    HC3   52  -1.832   0.799  -1.480
    1LIG    HC4   53  -1.760   0.769  -1.639
    1LIG    HC5   54  -1.611   0.625  -1.440
    1LIG    HC6   55  -1.701   0.563  -1.579
    1LIG    HC7   56  -1.782   0.450  -1.389
    1LIG    HC8   57  -1.794   0.598  -1.294
    1LIG    HC9   58  -1.976   0.666  -1.467
    1LIG   HC10   59  -2.016   0.552  -1.339
    1LIG   HC11   60  -1.897   0.682  -1.668
    1LIG   HC12   61  -1.714   0.640  -2.000
    1LIG   HC13   62  -1.729   0.752  -1.865
    1LIG   HC14   63  -1.911   0.488  -2.043
    1LIG   HC15   64  -2.086   0.341  -1.950
    1LIG   HC16   65  -2.117   0.322  -1.704
    1LIG   HC17   66  -1.393   0.794  -1.538
    1LIG   HC18   67  -1.661   0.374  -1.812
    1LIG   HC19   68  -1.389   0.339  -1.897
    1LIG   HC20   69  -1.394   0.457  -1.763
    1LIG   HC21   70  -1.577   0.411  -1.600
    1LIG   HC22   71  -1.429   0.085  -1.502
    1LIG   HC23   72  -1.205   0.252  -1.178
    1LIG   HC24   73  -1.270   0.478  -1.250
    1LIG   HC25   74  -1.425   0.509  -1.440
    1LIG   HC26   75  -1.646   0.115  -1.587
    1LIG   HC27   76  -1.707   0.232  -1.468
    1LIG   HC28   77  -1.624   0.958  -2.032
    1LIG   HC29   78  -1.639   1.122  -1.969
    1LIG   HC30   79  -1.369  -0.189  -1.284
    1LIG   HC31   80  -1.374  -0.105  -1.441
    1LIG   HC32   81  -1.484  -0.056  -1.310
    1LIG   HC33   82  -1.367   0.023  -1.086
    1LIG   HC34   83  -1.194   0.063  -1.091
    1LIG   HC35   84  -1.247  -0.107  -1.102
    1LIG   HC36   85  -1.409   1.064  -2.265
    1LIG   HC37   86  -1.585   1.073  -2.236
    1LIG   HC38   87  -1.495   0.923  -2.199
    1LIG   HC39   88  -1.143  -0.024  -1.447
    1LIG   HC40   89  -1.118  -0.133  -1.310
    1LIG   HC41   90  -1.065   0.036  -1.299
   0.00000   0.00000   0.00000
