Good gRace! Old Maple Actually Chews Slate
   49
    1LIG     C1    1  -1.606   0.376  -1.440
    1LIG     C2    2  -1.592   0.247  -1.492
    1LIG     C3    3  -1.477   0.210  -1.561
    1LIG     C4    4  -1.374   0.301  -1.587
    1LIG     C5    5  -1.395   0.434  -1.548
    1LIG     C6    6  -1.509   0.472  -1.477
    1LIG     C7    7  -1.711   0.405  -1.335
    1LIG     C8    8  -1.743   0.287  -1.245
    1LIG     C9    9  -1.670   0.407  -1.189
    1LIG    C10   10  -1.743   0.485  -1.088
    1LIG     N1   11  -1.825   0.413  -1.006
    1LIG    C11   12  -1.886   0.476  -0.910
    1LIG     HN   13  -1.838   0.313  -1.019
    1LIG     N2   14  -1.872   0.612  -0.887
    1LIG    C12   15  -1.797   0.690  -0.973
    1LIG    C13   16  -1.939   0.678  -0.776
    1LIG     O1   17  -1.783   0.812  -0.965
    1LIG    C14   18  -1.728   0.618  -1.079
    1LIG     N3   19  -1.966   0.401  -0.829
    1LIG     H1   20  -1.970   0.305  -0.861
    1LIG     H2   21  -1.950   0.409  -0.729
    1LIG    C15   22  -1.246   0.255  -1.644
    1LIG    C16   23  -1.211   0.119  -1.639
    1LIG    C17   24  -1.085   0.075  -1.682
    1LIG    C18   25  -0.992   0.166  -1.731
    1LIG    C19   26  -1.026   0.301  -1.740
    1LIG    C20   27  -1.152   0.345  -1.697
    1LIG    C21   28  -1.047  -0.069  -1.671
    1LIG     O2   29  -1.061  -0.132  -1.567
    1LIG     N4   30  -0.993  -0.127  -1.782
    1LIG     H3   31  -0.958  -0.073  -1.861
    1LIG     H4   32  -0.958  -0.221  -1.771
    1LIG     H5   33  -1.668   0.178  -1.478
    1LIG     H6   34  -1.468   0.112  -1.595
    1LIG     H7   35  -1.325   0.506  -1.572
    1LIG     H8   36  -1.523   0.570  -1.451
    1LIG     H9   37  -1.764   0.473  -1.398
    1LIG    H10   38  -1.691   0.195  -1.257
    1LIG    H11   39  -1.832   0.235  -1.219
    1LIG    H12   40  -1.577   0.428  -1.141
    1LIG    H13   41  -1.852   0.572  -0.944
    1LIG    H14   42  -1.914   0.782  -0.777
    1LIG    H15   43  -1.906   0.635  -0.684
    1LIG    H16   44  -2.045   0.666  -0.786
    1LIG    H17   45  -1.669   0.668  -1.147
    1LIG    H18   46  -1.279   0.050  -1.603
    1LIG    H19   47  -0.898   0.134  -1.760
    1LIG    H20   48  -0.958   0.369  -1.779
    1LIG    H21   49  -1.176   0.445  -1.705
   0.00000   0.00000   0.00000
