; Created by cgenff_charmm2gmx.py

[ moleculetype ]
; Name			   nrexcl
LIG				 3

[ atoms ]
;	 nr		  type	resnr residue  atom   cgnr	   charge		mass  typeB    chargeB		massB
; residue	 1 LIG rtp LIG q	qsum
     1     CG2R61      1    LIG     C1      1     -0.035     12.011   ;
     2     CG2R61      1    LIG     C2      2     -0.116     12.011   ;
     3     CG2R61      1    LIG     C3      3     -0.119     12.011   ;
     4     CG2R67      1    LIG     C4      4      0.006     12.011   ;
     5     CG2R61      1    LIG     C5      5     -0.119     12.011   ;
     6     CG2R61      1    LIG     C6      6     -0.116     12.011   ;
     7     CG3C31      1    LIG     C7      7     -0.056     12.011   ;
     8     CG3C31      1    LIG     C8      8     -0.174     12.011   ;
     9     CG3C31      1    LIG     C9      9      0.064     12.011   ;
    10     CG2D1O      1    LIG    C10     10     -0.045     12.011   ;
    11      NG311      1    LIG     N1     11     -0.587     14.007   ;
    12      CG311      1    LIG    C11     12      0.307     12.011   ;
    13     HGPAM1      1    LIG     HN     13      0.349      1.008   ;
    14      NG2S0      1    LIG     N2     14     -0.161     14.007   ;
    15      CG2O1      1    LIG    C12     15      0.416     12.011   ;
    16      CG331      1    LIG    C13     16     -0.238     12.011   ;
    17      OG2D1      1    LIG     O1     17     -0.530     15.999   ;
    18     CG2DC1      1    LIG    C14     18      0.087     12.011   ;
    19      NG321      1    LIG     N3     19     -1.085     14.007   ;
    20     HGPAM2      1    LIG     H1     20      0.416      1.008   ;
    21     HGPAM2      1    LIG     H2     21      0.416      1.008   ;
    22     CG2R67      1    LIG    C15     22      0.005     12.011   ;
    23     CG2R61      1    LIG    C16     23     -0.066     12.011   ;
    24     CG2R61      1    LIG    C17     24      0.032     12.011   ;
    25     CG2R61      1    LIG    C18     25     -0.059     12.011   ;
    26     CG2R61      1    LIG    C19     26     -0.117     12.011   ;
    27     CG2R61      1    LIG    C20     27     -0.119     12.011   ;
    28      CG2O1      1    LIG    C21     28      0.516     12.011   ;
    29      OG2D1      1    LIG     O2     29     -0.491     15.999   ;
    30      NG2S2      1    LIG     N4     30     -0.925     14.007   ;
    31       HGP1      1    LIG     H3     31      0.380      1.008   ;
    32       HGP1      1    LIG     H4     32      0.380      1.008   ;
    33      HGR61      1    LIG     H5     33      0.116      1.008   ;
    34      HGR61      1    LIG     H6     34      0.116      1.008   ;
    35      HGR61      1    LIG     H7     35      0.116      1.008   ;
    36      HGR61      1    LIG     H8     36      0.116      1.008   ;
    37       HGA1      1    LIG     H9     37      0.090      1.008   ;
    38       HGA2      1    LIG    H10     38      0.090      1.008   ;
    39       HGA2      1    LIG    H11     39      0.090      1.008   ;
    40       HGA1      1    LIG    H12     40      0.090      1.008   ;
    41       HGA1      1    LIG    H13     41      0.090      1.008   ;
    42       HGA3      1    LIG    H14     42      0.090      1.008   ;
    43       HGA3      1    LIG    H15     43      0.090      1.008   ;
    44       HGA3      1    LIG    H16     44      0.090      1.008   ;
    45       HGA4      1    LIG    H17     45      0.136      1.008   ;
    46      HGR61      1    LIG    H18     46      0.116      1.008   ;
    47      HGR61      1    LIG    H19     47      0.116      1.008   ;
    48      HGR61      1    LIG    H20     48      0.116      1.008   ;
    49      HGR61      1    LIG    H21     49      0.116      1.008   ;

[ bonds ]
;	ai	  aj funct			  c0			c1			  c2			c3
    1     2	 1 ;      CG2R61     CG2R61
    1     6	 1 ;      CG2R61     CG2R61
    1     7	 1 ;      CG2R61     CG3C31
    2     3	 1 ;      CG2R61     CG2R61
    2    33	 1 ;      CG2R61      HGR61
    3     4	 1 ;      CG2R61     CG2R67
    3    34	 1 ;      CG2R61      HGR61
    4    22	 1 ;      CG2R67     CG2R67
    4     5	 1 ;      CG2R67     CG2R61
    5     6	 1 ;      CG2R61     CG2R61
    5    35	 1 ;      CG2R61      HGR61
    6    36	 1 ;      CG2R61      HGR61
    7     8	 1 ;      CG3C31     CG3C31
    7     9	 1 ;      CG3C31     CG3C31
    7    37	 1 ;      CG3C31       HGA1
    8     9	 1 ;      CG3C31     CG3C31
    8    38	 1 ;      CG3C31       HGA2
    8    39	 1 ;      CG3C31       HGA2
    9    10	 1 ;      CG3C31     CG2D1O
    9    40	 1 ;      CG3C31       HGA1
   10    18	 1 ;      CG2D1O     CG2DC1
   10    11	 1 ;      CG2D1O      NG311
   11    13	 1 ;       NG311     HGPAM1
   11    12	 1 ;       NG311      CG311
   12    14	 1 ;       CG311      NG2S0
   12    19	 1 ;       CG311      NG321
   12    41	 1 ;       CG311       HGA1
   14    15	 1 ;       NG2S0      CG2O1
   14    16	 1 ;       NG2S0      CG331
   15    18	 1 ;       CG2O1     CG2DC1
   15    17	 1 ;       CG2O1      OG2D1
   16    42	 1 ;       CG331       HGA3
   16    43	 1 ;       CG331       HGA3
   16    44	 1 ;       CG331       HGA3
   18    45	 1 ;      CG2DC1       HGA4
   19    20	 1 ;       NG321     HGPAM2
   19    21	 1 ;       NG321     HGPAM2
   22    27	 1 ;      CG2R67     CG2R61
   22    23	 1 ;      CG2R67     CG2R61
   23    24	 1 ;      CG2R61     CG2R61
   23    46	 1 ;      CG2R61      HGR61
   24    25	 1 ;      CG2R61     CG2R61
   24    28	 1 ;      CG2R61      CG2O1
   25    26	 1 ;      CG2R61     CG2R61
   25    47	 1 ;      CG2R61      HGR61
   26    27	 1 ;      CG2R61     CG2R61
   26    48	 1 ;      CG2R61      HGR61
   27    49	 1 ;      CG2R61      HGR61
   28    30	 1 ;       CG2O1      NG2S2
   28    29	 1 ;       CG2O1      OG2D1
   30    31	 1 ;       NG2S2       HGP1
   30    32	 1 ;       NG2S2       HGP1

[ pairs ]
;	ai	  aj funct			  c0			c1			  c2			c3
    1     4	 1
    1    34	 1
    1    35	 1
    1    38	 1
    1    39	 1
    1    10	 1
    1    40	 1
    2     5	 1
    2    36	 1
    2     8	 1
    2     9	 1
    2    37	 1
    2    22	 1
    3     6	 1
    3     7	 1
    3    27	 1
    3    23	 1
    3    35	 1
    4    33	 1
    4    36	 1
    4    26	 1
    4    49	 1
    4    24	 1
    4    46	 1
    5     7	 1
    5    34	 1
    5    27	 1
    5    23	 1
    6    33	 1
    6     8	 1
    6     9	 1
    6    37	 1
    6    22	 1
    7    33	 1
    7    36	 1
    7    18	 1
    7    11	 1
    8    18	 1
    8    11	 1
    9    15	 1
    9    45	 1
    9    13	 1
    9    12	 1
   10    37	 1
   10    38	 1
   10    39	 1
   10    14	 1
   10    19	 1
   10    41	 1
   10    17	 1
   11    40	 1
   11    15	 1
   11    45	 1
   11    16	 1
   11    20	 1
   11    21	 1
   12    18	 1
   12    17	 1
   12    42	 1
   12    43	 1
   12    44	 1
   13    18	 1
   13    14	 1
   13    19	 1
   13    41	 1
   14    20	 1
   14    21	 1
   14    45	 1
   15    19	 1
   15    41	 1
   15    42	 1
   15    43	 1
   15    44	 1
   16    19	 1
   16    41	 1
   16    18	 1
   16    17	 1
   17    45	 1
   18    40	 1
   20    41	 1
   21    41	 1
   22    34	 1
   22    35	 1
   22    25	 1
   22    28	 1
   22    48	 1
   23    26	 1
   23    49	 1
   23    47	 1
   23    30	 1
   23    29	 1
   24    27	 1
   24    48	 1
   24    31	 1
   24    32	 1
   25    46	 1
   25    30	 1
   25    29	 1
   25    49	 1
   26    28	 1
   27    46	 1
   27    47	 1
   28    46	 1
   28    47	 1
   29    31	 1
   29    32	 1
   33    34	 1
   35    36	 1
   37    38	 1
   37    39	 1
   37    40	 1
   38    40	 1
   39    40	 1
   47    48	 1
   48    49	 1

[ angles ]
;	ai	  aj	ak funct			c0			  c1			c2			  c3
    2     1     6	5 ;     CG2R61     CG2R61     CG2R61
    2     1     7	5 ;     CG2R61     CG2R61     CG3C31
    6     1     7	5 ;     CG2R61     CG2R61     CG3C31
    3     2     1	5 ;     CG2R61     CG2R61     CG2R61
    3     2    33	5 ;     CG2R61     CG2R61      HGR61
    1     2    33	5 ;     CG2R61     CG2R61      HGR61
    4     3     2	5 ;     CG2R67     CG2R61     CG2R61
    4     3    34	5 ;     CG2R67     CG2R61      HGR61
    2     3    34	5 ;     CG2R61     CG2R61      HGR61
   22     4     3	5 ;     CG2R67     CG2R67     CG2R61
   22     4     5	5 ;     CG2R67     CG2R67     CG2R61
    3     4     5	5 ;     CG2R61     CG2R67     CG2R61
    4     5     6	5 ;     CG2R67     CG2R61     CG2R61
    4     5    35	5 ;     CG2R67     CG2R61      HGR61
    6     5    35	5 ;     CG2R61     CG2R61      HGR61
    5     6     1	5 ;     CG2R61     CG2R61     CG2R61
    5     6    36	5 ;     CG2R61     CG2R61      HGR61
    1     6    36	5 ;     CG2R61     CG2R61      HGR61
    1     7     8	5 ;     CG2R61     CG3C31     CG3C31
    1     7     9	5 ;     CG2R61     CG3C31     CG3C31
    1     7    37	5 ;     CG2R61     CG3C31       HGA1
    8     7     9	5 ;     CG3C31     CG3C31     CG3C31
    8     7    37	5 ;     CG3C31     CG3C31       HGA1
    9     7    37	5 ;     CG3C31     CG3C31       HGA1
    7     8     9	5 ;     CG3C31     CG3C31     CG3C31
    7     8    38	5 ;     CG3C31     CG3C31       HGA2
    7     8    39	5 ;     CG3C31     CG3C31       HGA2
    9     8    38	5 ;     CG3C31     CG3C31       HGA2
    9     8    39	5 ;     CG3C31     CG3C31       HGA2
   38     8    39	5 ;       HGA2     CG3C31       HGA2
    7     9     8	5 ;     CG3C31     CG3C31     CG3C31
    7     9    10	5 ;     CG3C31     CG3C31     CG2D1O
    7     9    40	5 ;     CG3C31     CG3C31       HGA1
    8     9    10	5 ;     CG3C31     CG3C31     CG2D1O
    8     9    40	5 ;     CG3C31     CG3C31       HGA1
   10     9    40	5 ;     CG2D1O     CG3C31       HGA1
    9    10    18	5 ;     CG3C31     CG2D1O     CG2DC1
    9    10    11	5 ;     CG3C31     CG2D1O      NG311
   18    10    11	5 ;     CG2DC1     CG2D1O      NG311
   10    11    13	5 ;     CG2D1O      NG311     HGPAM1
   10    11    12	5 ;     CG2D1O      NG311      CG311
   13    11    12	5 ;     HGPAM1      NG311      CG311
   11    12    14	5 ;      NG311      CG311      NG2S0
   11    12    19	5 ;      NG311      CG311      NG321
   11    12    41	5 ;      NG311      CG311       HGA1
   14    12    19	5 ;      NG2S0      CG311      NG321
   14    12    41	5 ;      NG2S0      CG311       HGA1
   19    12    41	5 ;      NG321      CG311       HGA1
   15    14    12	5 ;      CG2O1      NG2S0      CG311
   15    14    16	5 ;      CG2O1      NG2S0      CG331
   12    14    16	5 ;      CG311      NG2S0      CG331
   18    15    17	5 ;     CG2DC1      CG2O1      OG2D1
   18    15    14	5 ;     CG2DC1      CG2O1      NG2S0
   17    15    14	5 ;      OG2D1      CG2O1      NG2S0
   14    16    42	5 ;      NG2S0      CG331       HGA3
   14    16    43	5 ;      NG2S0      CG331       HGA3
   14    16    44	5 ;      NG2S0      CG331       HGA3
   42    16    43	5 ;       HGA3      CG331       HGA3
   42    16    44	5 ;       HGA3      CG331       HGA3
   43    16    44	5 ;       HGA3      CG331       HGA3
   10    18    15	5 ;     CG2D1O     CG2DC1      CG2O1
   10    18    45	5 ;     CG2D1O     CG2DC1       HGA4
   15    18    45	5 ;      CG2O1     CG2DC1       HGA4
   12    19    20	5 ;      CG311      NG321     HGPAM2
   12    19    21	5 ;      CG311      NG321     HGPAM2
   20    19    21	5 ;     HGPAM2      NG321     HGPAM2
   27    22    23	5 ;     CG2R61     CG2R67     CG2R61
   27    22     4	5 ;     CG2R61     CG2R67     CG2R67
   23    22     4	5 ;     CG2R61     CG2R67     CG2R67
   24    23    22	5 ;     CG2R61     CG2R61     CG2R67
   24    23    46	5 ;     CG2R61     CG2R61      HGR61
   22    23    46	5 ;     CG2R67     CG2R61      HGR61
   25    24    28	5 ;     CG2R61     CG2R61      CG2O1
   25    24    23	5 ;     CG2R61     CG2R61     CG2R61
   28    24    23	5 ;      CG2O1     CG2R61     CG2R61
   26    25    24	5 ;     CG2R61     CG2R61     CG2R61
   26    25    47	5 ;     CG2R61     CG2R61      HGR61
   24    25    47	5 ;     CG2R61     CG2R61      HGR61
   25    26    27	5 ;     CG2R61     CG2R61     CG2R61
   25    26    48	5 ;     CG2R61     CG2R61      HGR61
   27    26    48	5 ;     CG2R61     CG2R61      HGR61
   26    27    22	5 ;     CG2R61     CG2R61     CG2R67
   26    27    49	5 ;     CG2R61     CG2R61      HGR61
   22    27    49	5 ;     CG2R67     CG2R61      HGR61
   30    28    24	5 ;      NG2S2      CG2O1     CG2R61
   30    28    29	5 ;      NG2S2      CG2O1      OG2D1
   24    28    29	5 ;     CG2R61      CG2O1      OG2D1
   31    30    32	5 ;       HGP1      NG2S2       HGP1
   31    30    28	5 ;       HGP1      NG2S2      CG2O1
   32    30    28	5 ;       HGP1      NG2S2      CG2O1

[ dihedrals ]
;	ai	  aj	ak	  al funct			  c0			c1			  c2			c3			  c4			c5
    6     1     2     3	 9 ;     CG2R61     CG2R61     CG2R61     CG2R61
    6     1     2    33	 9 ;     CG2R61     CG2R61     CG2R61      HGR61
    7     1     2     3	 9 ;     CG3C31     CG2R61     CG2R61     CG2R61
    7     1     2    33	 9 ;     CG3C31     CG2R61     CG2R61      HGR61
    2     1     6     5	 9 ;     CG2R61     CG2R61     CG2R61     CG2R61
    2     1     6    36	 9 ;     CG2R61     CG2R61     CG2R61      HGR61
    7     1     6     5	 9 ;     CG3C31     CG2R61     CG2R61     CG2R61
    7     1     6    36	 9 ;     CG3C31     CG2R61     CG2R61      HGR61
    2     1     7     8	 9 ;     CG2R61     CG2R61     CG3C31     CG3C31
    2     1     7     9	 9 ;     CG2R61     CG2R61     CG3C31     CG3C31
    2     1     7    37	 9 ;     CG2R61     CG2R61     CG3C31       HGA1
    6     1     7     8	 9 ;     CG2R61     CG2R61     CG3C31     CG3C31
    6     1     7     9	 9 ;     CG2R61     CG2R61     CG3C31     CG3C31
    6     1     7    37	 9 ;     CG2R61     CG2R61     CG3C31       HGA1
    1     2     3     4	 9 ;     CG2R61     CG2R61     CG2R61     CG2R67
    1     2     3    34	 9 ;     CG2R61     CG2R61     CG2R61      HGR61
   33     2     3     4	 9 ;      HGR61     CG2R61     CG2R61     CG2R67
   33     2     3    34	 9 ;      HGR61     CG2R61     CG2R61      HGR61
    2     3     4    22	 9 ;     CG2R61     CG2R61     CG2R67     CG2R67
    2     3     4     5	 9 ;     CG2R61     CG2R61     CG2R67     CG2R61
   34     3     4    22	 9 ;      HGR61     CG2R61     CG2R67     CG2R67
   34     3     4     5	 9 ;      HGR61     CG2R61     CG2R67     CG2R61
    3     4    22    27	 9 ;     CG2R61     CG2R67     CG2R67     CG2R61
    3     4    22    23	 9 ;     CG2R61     CG2R67     CG2R67     CG2R61
    5     4    22    27	 9 ;     CG2R61     CG2R67     CG2R67     CG2R61
    5     4    22    23	 9 ;     CG2R61     CG2R67     CG2R67     CG2R61
   22     4     5     6	 9 ;     CG2R67     CG2R67     CG2R61     CG2R61
   22     4     5    35	 9 ;     CG2R67     CG2R67     CG2R61      HGR61
    3     4     5     6	 9 ;     CG2R61     CG2R67     CG2R61     CG2R61
    3     4     5    35	 9 ;     CG2R61     CG2R67     CG2R61      HGR61
    4     5     6     1	 9 ;     CG2R67     CG2R61     CG2R61     CG2R61
    4     5     6    36	 9 ;     CG2R67     CG2R61     CG2R61      HGR61
   35     5     6     1	 9 ;      HGR61     CG2R61     CG2R61     CG2R61
   35     5     6    36	 9 ;      HGR61     CG2R61     CG2R61      HGR61
    1     7     8     9	 9 ;     CG2R61     CG3C31     CG3C31     CG3C31
    1     7     8    38	 9 ;     CG2R61     CG3C31     CG3C31       HGA2
    1     7     8    39	 9 ;     CG2R61     CG3C31     CG3C31       HGA2
    9     7     8    38	 9 ;     CG3C31     CG3C31     CG3C31       HGA2
    9     7     8    39	 9 ;     CG3C31     CG3C31     CG3C31       HGA2
   37     7     8     9	 9 ;       HGA1     CG3C31     CG3C31     CG3C31
   37     7     8    38	 9 ;       HGA1     CG3C31     CG3C31       HGA2
   37     7     8    39	 9 ;       HGA1     CG3C31     CG3C31       HGA2
    1     7     9     8	 9 ;     CG2R61     CG3C31     CG3C31     CG3C31
    1     7     9    10	 9 ;     CG2R61     CG3C31     CG3C31     CG2D1O
    1     7     9    40	 9 ;     CG2R61     CG3C31     CG3C31       HGA1
    8     7     9    10	 9 ;     CG3C31     CG3C31     CG3C31     CG2D1O
    8     7     9    40	 9 ;     CG3C31     CG3C31     CG3C31       HGA1
   37     7     9     8	 9 ;       HGA1     CG3C31     CG3C31     CG3C31
   37     7     9    10	 9 ;       HGA1     CG3C31     CG3C31     CG2D1O
   37     7     9    40	 9 ;       HGA1     CG3C31     CG3C31       HGA1
    7     8     9    10	 9 ;     CG3C31     CG3C31     CG3C31     CG2D1O
    7     8     9    40	 9 ;     CG3C31     CG3C31     CG3C31       HGA1
   38     8     9     7	 9 ;       HGA2     CG3C31     CG3C31     CG3C31
   38     8     9    10	 9 ;       HGA2     CG3C31     CG3C31     CG2D1O
   38     8     9    40	 9 ;       HGA2     CG3C31     CG3C31       HGA1
   39     8     9     7	 9 ;       HGA2     CG3C31     CG3C31     CG3C31
   39     8     9    10	 9 ;       HGA2     CG3C31     CG3C31     CG2D1O
   39     8     9    40	 9 ;       HGA2     CG3C31     CG3C31       HGA1
    7     9    10    18	 9 ;     CG3C31     CG3C31     CG2D1O     CG2DC1
    7     9    10    11	 9 ;     CG3C31     CG3C31     CG2D1O      NG311
    8     9    10    18	 9 ;     CG3C31     CG3C31     CG2D1O     CG2DC1
    8     9    10    11	 9 ;     CG3C31     CG3C31     CG2D1O      NG311
   40     9    10    18	 9 ;       HGA1     CG3C31     CG2D1O     CG2DC1
   40     9    10    11	 9 ;       HGA1     CG3C31     CG2D1O      NG311
    9    10    18    15	 9 ;     CG3C31     CG2D1O     CG2DC1      CG2O1
    9    10    18    45	 9 ;     CG3C31     CG2D1O     CG2DC1       HGA4
   11    10    18    15	 9 ;      NG311     CG2D1O     CG2DC1      CG2O1
   11    10    18    45	 9 ;      NG311     CG2D1O     CG2DC1       HGA4
    9    10    11    13	 9 ;     CG3C31     CG2D1O      NG311     HGPAM1
    9    10    11    12	 9 ;     CG3C31     CG2D1O      NG311      CG311
   18    10    11    13	 9 ;     CG2DC1     CG2D1O      NG311     HGPAM1
   18    10    11    12	 9 ;     CG2DC1     CG2D1O      NG311      CG311
   10    11    12    14	 9 ;     CG2D1O      NG311      CG311      NG2S0
   10    11    12    19	 9 ;     CG2D1O      NG311      CG311      NG321
   10    11    12    41	 9 ;     CG2D1O      NG311      CG311       HGA1
   13    11    12    14	 9 ;     HGPAM1      NG311      CG311      NG2S0
   13    11    12    19	 9 ;     HGPAM1      NG311      CG311      NG321
   13    11    12    41	 9 ;     HGPAM1      NG311      CG311       HGA1
   11    12    14    15	 9 ;      NG311      CG311      NG2S0      CG2O1
   11    12    14    16	 9 ;      NG311      CG311      NG2S0      CG331
   19    12    14    15	 9 ;      NG321      CG311      NG2S0      CG2O1
   19    12    14    16	 9 ;      NG321      CG311      NG2S0      CG331
   41    12    14    15	 9 ;       HGA1      CG311      NG2S0      CG2O1
   41    12    14    16	 9 ;       HGA1      CG311      NG2S0      CG331
   11    12    19    20	 9 ;      NG311      CG311      NG321     HGPAM2
   11    12    19    21	 9 ;      NG311      CG311      NG321     HGPAM2
   14    12    19    20	 9 ;      NG2S0      CG311      NG321     HGPAM2
   14    12    19    21	 9 ;      NG2S0      CG311      NG321     HGPAM2
   41    12    19    20	 9 ;       HGA1      CG311      NG321     HGPAM2
   41    12    19    21	 9 ;       HGA1      CG311      NG321     HGPAM2
   12    14    15    18	 9 ;      CG311      NG2S0      CG2O1     CG2DC1
   12    14    15    17	 9 ;      CG311      NG2S0      CG2O1      OG2D1
   16    14    15    18	 9 ;      CG331      NG2S0      CG2O1     CG2DC1
   16    14    15    17	 9 ;      CG331      NG2S0      CG2O1      OG2D1
   15    14    16    42	 9 ;      CG2O1      NG2S0      CG331       HGA3
   15    14    16    43	 9 ;      CG2O1      NG2S0      CG331       HGA3
   15    14    16    44	 9 ;      CG2O1      NG2S0      CG331       HGA3
   12    14    16    42	 9 ;      CG311      NG2S0      CG331       HGA3
   12    14    16    43	 9 ;      CG311      NG2S0      CG331       HGA3
   12    14    16    44	 9 ;      CG311      NG2S0      CG331       HGA3
   17    15    18    10	 9 ;      OG2D1      CG2O1     CG2DC1     CG2D1O
   17    15    18    45	 9 ;      OG2D1      CG2O1     CG2DC1       HGA4
   14    15    18    10	 9 ;      NG2S0      CG2O1     CG2DC1     CG2D1O
   14    15    18    45	 9 ;      NG2S0      CG2O1     CG2DC1       HGA4
   23    22    27    26	 9 ;     CG2R61     CG2R67     CG2R61     CG2R61
   23    22    27    49	 9 ;     CG2R61     CG2R67     CG2R61      HGR61
    4    22    27    26	 9 ;     CG2R67     CG2R67     CG2R61     CG2R61
    4    22    27    49	 9 ;     CG2R67     CG2R67     CG2R61      HGR61
   27    22    23    24	 9 ;     CG2R61     CG2R67     CG2R61     CG2R61
   27    22    23    46	 9 ;     CG2R61     CG2R67     CG2R61      HGR61
    4    22    23    24	 9 ;     CG2R67     CG2R67     CG2R61     CG2R61
    4    22    23    46	 9 ;     CG2R67     CG2R67     CG2R61      HGR61
   22    23    24    25	 9 ;     CG2R67     CG2R61     CG2R61     CG2R61
   22    23    24    28	 9 ;     CG2R67     CG2R61     CG2R61      CG2O1
   46    23    24    25	 9 ;      HGR61     CG2R61     CG2R61     CG2R61
   46    23    24    28	 9 ;      HGR61     CG2R61     CG2R61      CG2O1
   28    24    25    26	 9 ;      CG2O1     CG2R61     CG2R61     CG2R61
   28    24    25    47	 9 ;      CG2O1     CG2R61     CG2R61      HGR61
   23    24    25    26	 9 ;     CG2R61     CG2R61     CG2R61     CG2R61
   23    24    25    47	 9 ;     CG2R61     CG2R61     CG2R61      HGR61
   25    24    28    30	 9 ;     CG2R61     CG2R61      CG2O1      NG2S2
   25    24    28    29	 9 ;     CG2R61     CG2R61      CG2O1      OG2D1
   23    24    28    30	 9 ;     CG2R61     CG2R61      CG2O1      NG2S2
   23    24    28    29	 9 ;     CG2R61     CG2R61      CG2O1      OG2D1
   24    25    26    27	 9 ;     CG2R61     CG2R61     CG2R61     CG2R61
   24    25    26    48	 9 ;     CG2R61     CG2R61     CG2R61      HGR61
   47    25    26    27	 9 ;      HGR61     CG2R61     CG2R61     CG2R61
   47    25    26    48	 9 ;      HGR61     CG2R61     CG2R61      HGR61
   25    26    27    22	 9 ;     CG2R61     CG2R61     CG2R61     CG2R67
   25    26    27    49	 9 ;     CG2R61     CG2R61     CG2R61      HGR61
   48    26    27    22	 9 ;      HGR61     CG2R61     CG2R61     CG2R67
   48    26    27    49	 9 ;      HGR61     CG2R61     CG2R61      HGR61
   24    28    30    31	 9 ;     CG2R61      CG2O1      NG2S2       HGP1
   24    28    30    32	 9 ;     CG2R61      CG2O1      NG2S2       HGP1
   29    28    30    31	 9 ;      OG2D1      CG2O1      NG2S2       HGP1
   29    28    30    32	 9 ;      OG2D1      CG2O1      NG2S2       HGP1

[ dihedrals ]
;	ai	  aj	ak	  al funct			  c0			c1			  c2			c3
   10    18     9    11	 2
   15    18    14    17	 2
   28    24    30    29	 2

