Gnomes, ROck Monsters And Chili Sauce
   48
    1LIG     C2    1   8.363   1.521   8.984
    1LIG     O5    2   8.282   1.755   9.104
    1LIG     C4    3   8.386   1.704   9.309
    1LIG     C5    4   8.472   1.619   9.380
    1LIG     C6    5   8.342   1.823   9.368
    1LIG     C7    6   8.514   1.655   9.508
    1LIG     C8    7   8.384   1.858   9.497
    1LIG     C9    8   8.470   1.774   9.568
    1LIG    C10    9   8.378   1.536   9.117
    1LIG    C11   10   8.422   1.434   9.218
    1LIG    C12   11   8.343   1.672   9.171
    1LIG    C13   12   8.524   1.493   9.316
    1LIG     N1   13   8.271   1.334   8.869
    1LIG     O4   14   8.498   1.353   8.882
    1LIG     C3   15   8.387   1.396   8.907
    1LIG     H4   16   8.184   1.361   8.914
    1LIG    C14   17   8.274   1.200   8.809
    1LIG    C16   18   8.250   1.208   8.656
    1LIG    C17   19   8.178   1.337   8.618
    1LIG    C18   20   8.382   1.199   8.578
    1LIG     O2   21   8.056   1.090   8.823
    1LIG    C15   22   8.162   1.120   8.877
    1LIG     O3   23   8.199   1.084   9.003
    1LIG    C19   24   8.123   0.975   9.057
    1LIG     C1   25   8.433   1.764   9.802
    1LIG     O1   26   8.519   1.796   9.694
    1LIG     H1   27   8.332   1.604   8.931
    1LIG     H2   28   8.279   1.886   9.316
    1LIG     H3   29   8.578   1.593   9.560
    1LIG     H5   30   8.351   1.946   9.540
    1LIG     H6   31   8.467   1.352   9.167
    1LIG     H7   32   8.336   1.403   9.274
    1LIG     H8   33   8.614   1.515   9.263
    1LIG     H9   34   8.542   1.421   9.393
    1LIG    H10   35   8.369   1.154   8.823
    1LIG    H11   36   8.190   1.124   8.630
    1LIG    H12   37   8.239   1.421   8.643
    1LIG    H13   38   8.085   1.343   8.670
    1LIG    H14   39   8.159   1.338   8.512
    1LIG    H15   40   8.444   1.283   8.603
    1LIG    H16   41   8.361   1.200   8.473
    1LIG    H17   42   8.433   1.109   8.604
    1LIG    H18   43   8.158   0.953   9.156
    1LIG    H19   44   8.135   0.889   8.995
    1LIG    H20   45   8.020   1.002   9.061
    1LIG    H21   46   8.483   1.786   9.895
    1LIG    H22   47   8.408   1.660   9.799
    1LIG    H23   48   8.344   1.823   9.796
   0.00000   0.00000   0.00000
