Great Red Oystrich Makes All Chemists Sane
   62
    1LIG      S    1  -1.791   0.659  -1.585
    1LIG     O1    2  -1.726   0.722  -1.471
    1LIG     O2    3  -1.871   0.735  -1.680
    1LIG     C1    4  -1.668   0.566  -1.673
    1LIG     C2    5  -1.604   0.462  -1.581
    1LIG     C3    6  -1.707   0.364  -1.523
    1LIG     C4    7  -1.809   0.439  -1.432
    1LIG     C5    8  -1.896   0.533  -1.516
    1LIG      N    9  -1.899   0.336  -1.365
    1LIG     H1   10  -1.879   0.242  -1.402
    1LIG     H2   11  -1.877   0.333  -1.265
    1LIG     C6   12  -2.047   0.359  -1.379
    1LIG     C7   13  -2.116   0.234  -1.422
    1LIG     C8   14  -2.121   0.123  -1.337
    1LIG     C9   15  -2.199   0.011  -1.369
    1LIG    C10   16  -2.267   0.010  -1.492
    1LIG    C11   17  -2.258   0.118  -1.580
    1LIG    C12   18  -2.184   0.230  -1.544
    1LIG    C13   19  -2.214  -0.104  -1.271
    1LIG    C14   20  -2.181  -0.238  -1.337
    1LIG    C15   21  -2.129  -0.082  -1.145
    1LIG     O3   22  -1.785   0.295  -1.621
    1LIG     H3   23  -1.762   0.325  -1.711
    1LIG    C16   24  -1.492   0.384  -1.650
    1LIG    C17   25  -1.399   0.316  -1.554
    1LIG    C18   26  -1.337   0.196  -1.589
    1LIG    C19   27  -1.266   0.121  -1.493
    1LIG    C20   28  -1.257   0.172  -1.363
    1LIG    C21   29  -1.311   0.296  -1.330
    1LIG    C22   30  -1.381   0.369  -1.425
    1LIG    C23   31  -1.215  -0.014  -1.532
    1LIG     O4   32  -1.074  -0.021  -1.514
    1LIG     H4   33  -1.060  -0.027  -1.417
    1LIG     O5   34  -1.198   0.103  -1.261
    1LIG     H5   35  -1.252   0.116  -1.180
    1LIG    HC2   36  -1.592   0.633  -1.710
    1LIG    HC3   37  -1.715   0.515  -1.758
    1LIG     HC   38  -1.559   0.516  -1.498
    1LIG    HC1   39  -1.655   0.291  -1.462
    1LIG    HC4   40  -1.756   0.496  -1.356
    1LIG    HC5   41  -1.972   0.578  -1.454
    1LIG    HC6   42  -1.943   0.477  -1.597
    1LIG    HC7   43  -2.087   0.391  -1.283
    1LIG    HC8   44  -2.065   0.437  -1.453
    1LIG    HC9   45  -2.064   0.123  -1.245
    1LIG   HC10   46  -2.326  -0.076  -1.520
    1LIG   HC11   47  -2.309   0.115  -1.675
    1LIG   HC12   48  -2.178   0.315  -1.612
    1LIG   HC13   49  -2.318  -0.107  -1.239
    1LIG   HC14   50  -2.242  -0.250  -1.426
    1LIG   HC15   51  -2.201  -0.319  -1.267
    1LIG   HC16   52  -2.075  -0.239  -1.365
    1LIG   HC17   53  -2.140  -0.168  -1.079
    1LIG   HC18   54  -2.024  -0.071  -1.174
    1LIG   HC19   55  -2.162   0.008  -1.094
    1LIG   HC20   56  -1.434   0.453  -1.712
    1LIG   HC21   57  -1.536   0.308  -1.715
    1LIG   HC22   58  -1.344   0.160  -1.690
    1LIG   HC23   59  -1.298   0.336  -1.230
    1LIG   HC24   60  -1.421   0.466  -1.400
    1LIG   HC25   61  -1.263  -0.090  -1.470
    1LIG   HC26   62  -1.239  -0.033  -1.637
   0.00000   0.00000   0.00000
