Green Red Orange Magenta Azure Cyan Skyblue
   63
    1LIG     N1    1  -1.634   0.459  -1.599
    1LIG     C1    2  -1.697   0.352  -1.686
    1LIG     C2    3  -1.782   0.411  -1.797
    1LIG     C3    4  -1.884   0.517  -1.752
    1LIG     N2    5  -2.018   0.457  -1.729
    1LIG      S    6  -2.119   0.458  -1.866
    1LIG     O1    7  -2.133   0.326  -1.919
    1LIG     O2    8  -2.229   0.549  -1.841
    1LIG     N3    9  -2.008   0.542  -1.962
    1LIG     C4   10  -1.916   0.614  -1.873
    1LIG     C5   11  -1.836   0.605  -1.635
    1LIG     C6   12  -1.737   0.547  -1.533
    1LIG     C7   13  -1.801   0.471  -1.417
    1LIG     H1   14  -1.589   0.406  -1.524
    1LIG     H2   15  -2.059   0.599  -2.030
    1LIG     C8   16  -1.516   0.535  -1.659
    1LIG     C9   17  -1.390   0.512  -1.581
    1LIG    C10   18  -1.351   0.380  -1.551
    1LIG    C11   19  -1.242   0.350  -1.468
    1LIG    C12   20  -1.176   0.459  -1.409
    1LIG    C13   21  -1.210   0.591  -1.439
    1LIG    C14   22  -1.315   0.618  -1.528
    1LIG    C15   23  -1.202   0.209  -1.441
    1LIG    C16   24  -1.243   0.147  -1.320
    1LIG    C17   25  -1.209   0.015  -1.289
    1LIG    C18   26  -1.136  -0.061  -1.379
    1LIG    C19   27  -1.094  -0.004  -1.499
    1LIG    C20   28  -1.125   0.129  -1.529
    1LIG     CL   29  -1.055   0.188  -1.677
    1LIG    C21   30  -2.063   0.379  -1.620
    1LIG    C22   31  -2.137   0.436  -1.518
    1LIG    C23   32  -2.165   0.360  -1.405
    1LIG      F   33  -2.235   0.415  -1.305
    1LIG    C24   34  -2.120   0.229  -1.393
    1LIG    C25   35  -2.046   0.172  -1.496
    1LIG    C26   36  -2.016   0.247  -1.610
    1LIG    HC2   37  -1.617   0.292  -1.730
    1LIG    HC3   38  -1.759   0.288  -1.624
    1LIG    HC4   39  -1.837   0.329  -1.844
    1LIG    HC5   40  -1.716   0.455  -1.872
    1LIG    HC6   41  -1.824   0.639  -1.926
    1LIG    HC7   42  -1.963   0.705  -1.836
    1LIG    HC8   43  -1.925   0.636  -1.580
    1LIG    HC9   44  -1.791   0.695  -1.677
    1LIG     HC   45  -1.683   0.631  -1.490
    1LIG    HC1   46  -1.725   0.452  -1.341
    1LIG   HC10   47  -1.881   0.531  -1.374
    1LIG   HC11   48  -1.841   0.376  -1.452
    1LIG   HC12   49  -1.500   0.501  -1.762
    1LIG   HC13   50  -1.539   0.641  -1.661
    1LIG   HC14   51  -1.407   0.299  -1.594
    1LIG   HC15   52  -1.096   0.440  -1.338
    1LIG   HC16   53  -1.156   0.673  -1.395
    1LIG   HC17   54  -1.339   0.720  -1.554
    1LIG   HC18   55  -1.302   0.204  -1.250
    1LIG   HC19   56  -1.240  -0.028  -1.195
    1LIG   HC20   57  -1.111  -0.164  -1.356
    1LIG   HC21   58  -1.038  -0.064  -1.569
    1LIG   HC22   59  -2.173   0.537  -1.526
    1LIG   HC23   60  -2.142   0.172  -1.304
    1LIG   HC24   61  -2.011   0.070  -1.488
    1LIG   HC25   62  -1.958   0.204  -1.689
    1LIG    LP1   63  -0.990   0.243  -1.816
   0.00000   0.00000   0.00000
