; Created by cgenff_charmm2gmx.py

[ moleculetype ]
; Name			   nrexcl
LIG				 3

[ atoms ]
;	 nr		  type	resnr residue  atom   cgnr	   charge		mass  typeB    chargeB		massB
; residue	 1 LIG rtp LIG q	qsum
     1      NG3P1      1    LIG     N1      1     -0.462     14.007   ;
     2      CG324      1    LIG     C1      2      0.103     12.011   ;
     3      CG321      1    LIG     C2      3     -0.123     12.011   ;
     4     CG3C50      1    LIG     C3      4      0.202     12.011   ;
     5     NG3C51      1    LIG     N2      5     -0.408     14.007   ;
     6      SG3O2      1    LIG      S      6      0.311     32.060   ;
     7      OG2P1      1    LIG     O1      7     -0.246     15.999   ;
     8      OG2P1      1    LIG     O2      8     -0.246     15.999   ;
     9     NG3C51      1    LIG     N3      9     -0.562     14.007   ;
    10     CG3C52      1    LIG     C4     10      0.080     12.011   ;
    11      CG321      1    LIG     C5     11     -0.124     12.011   ;
    12      CG314      1    LIG     C6     12      0.198     12.011   ;
    13      CG331      1    LIG     C7     13     -0.213     12.011   ;
    14       HGP2      1    LIG     H1     14      0.319      1.008   ;
    15       HGP1      1    LIG     H2     15      0.398      1.008   ;
    16      CG324      1    LIG     C8     16      0.119     12.011   ;
    17     CG2R61      1    LIG     C9     17      0.064     12.011   ;
    18     CG2R61      1    LIG    C10     18     -0.121     12.011   ;
    19     CG2R67      1    LIG    C11     19      0.020     12.011   ;
    20     CG2R61      1    LIG    C12     20     -0.119     12.011   ;
    21     CG2R61      1    LIG    C13     21     -0.114     12.011   ;
    22     CG2R61      1    LIG    C14     22     -0.114     12.011   ;
    23     CG2R67      1    LIG    C15     23      0.061     12.011   ;
    24     CG2R61      1    LIG    C16     24     -0.120     12.011   ;
    25     CG2R61      1    LIG    C17     25     -0.115     12.011   ;
    26     CG2R61      1    LIG    C18     26     -0.110     12.011   ;
    27     CG2R61      1    LIG    C19     27     -0.101     12.011   ;
    28     CG2R61      1    LIG    C20     28     -0.003     12.011   ;
    29      CLGR1      1    LIG     CL     29     -0.168     35.453   ;
    30     CG2R61      1    LIG    C21     30      0.378     12.011   ;
    31     CG2R61      1    LIG    C22     31     -0.169     12.011   ;
    32     CG2R66      1    LIG    C23     32      0.105     12.011   ;
    33       FGR1      1    LIG      F     33     -0.211     18.998   ;
    34     CG2R61      1    LIG    C24     34     -0.107     12.011   ;
    35     CG2R61      1    LIG    C25     35     -0.149     12.011   ;
    36     CG2R61      1    LIG    C26     36     -0.107     12.011   ;
    37       HGA2      1    LIG    HC2     37      0.090      1.008   ;
    38       HGA2      1    LIG    HC3     38      0.090      1.008   ;
    39       HGA2      1    LIG    HC4     39      0.090      1.008   ;
    40       HGA2      1    LIG    HC5     40      0.090      1.008   ;
    41       HGA2      1    LIG    HC6     41      0.090      1.008   ;
    42       HGA2      1    LIG    HC7     42      0.090      1.008   ;
    43       HGA2      1    LIG    HC8     43      0.090      1.008   ;
    44       HGA2      1    LIG    HC9     44      0.090      1.008   ;
    45       HGA1      1    LIG     HC     45      0.090      1.008   ;
    46       HGA3      1    LIG    HC1     46      0.090      1.008   ;
    47       HGA3      1    LIG   HC10     47      0.090      1.008   ;
    48       HGA3      1    LIG   HC11     48      0.090      1.008   ;
    49       HGA2      1    LIG   HC12     49      0.090      1.008   ;
    50       HGA2      1    LIG   HC13     50      0.090      1.008   ;
    51      HGR61      1    LIG   HC14     51      0.116      1.008   ;
    52      HGR61      1    LIG   HC15     52      0.116      1.008   ;
    53      HGR61      1    LIG   HC16     53      0.116      1.008   ;
    54      HGR61      1    LIG   HC17     54      0.116      1.008   ;
    55      HGR61      1    LIG   HC18     55      0.116      1.008   ;
    56      HGR61      1    LIG   HC19     56      0.116      1.008   ;
    57      HGR61      1    LIG   HC20     57      0.116      1.008   ;
    58      HGR62      1    LIG   HC21     58      0.146      1.008   ;
    59      HGR62      1    LIG   HC22     59      0.175      1.008   ;
    60      HGR62      1    LIG   HC23     60      0.179      1.008   ;
    61      HGR61      1    LIG   HC24     61      0.116      1.008   ;
    62      HGR61      1    LIG   HC25     62      0.116      1.008   ;
    63        LPH      1    LIG    LP1     63      0.050      0.000   ;

[ bonds ]
;	ai	  aj funct			  c0			c1			  c2			c3
    1    16	 1 ;       NG3P1      CG324
    1    14	 1 ;       NG3P1       HGP2
    1     2	 1 ;       NG3P1      CG324
    1    12	 1 ;       NG3P1      CG314
    2     3	 1 ;       CG324      CG321
    2    37	 1 ;       CG324       HGA2
    2    38	 1 ;       CG324       HGA2
    3     4	 1 ;       CG321     CG3C50
    3    39	 1 ;       CG321       HGA2
    3    40	 1 ;       CG321       HGA2
    4    10	 1 ;      CG3C50     CG3C52
    4    11	 1 ;      CG3C50      CG321
    4     5	 1 ;      CG3C50     NG3C51
    5     6	 1 ;      NG3C51      SG3O2
    5    30	 1 ;      NG3C51     CG2R61
    6     9	 1 ;       SG3O2     NG3C51
    6     7	 1 ;       SG3O2      OG2P1
    6     8	 1 ;       SG3O2      OG2P1
    9    10	 1 ;      NG3C51     CG3C52
    9    15	 1 ;      NG3C51       HGP1
   10    41	 1 ;      CG3C52       HGA2
   10    42	 1 ;      CG3C52       HGA2
   11    12	 1 ;       CG321      CG314
   11    43	 1 ;       CG321       HGA2
   11    44	 1 ;       CG321       HGA2
   12    13	 1 ;       CG314      CG331
   12    45	 1 ;       CG314       HGA1
   13    46	 1 ;       CG331       HGA3
   13    47	 1 ;       CG331       HGA3
   13    48	 1 ;       CG331       HGA3
   16    17	 1 ;       CG324     CG2R61
   16    49	 1 ;       CG324       HGA2
   16    50	 1 ;       CG324       HGA2
   17    22	 1 ;      CG2R61     CG2R61
   17    18	 1 ;      CG2R61     CG2R61
   18    19	 1 ;      CG2R61     CG2R67
   18    51	 1 ;      CG2R61      HGR61
   19    20	 1 ;      CG2R67     CG2R61
   19    23	 1 ;      CG2R67     CG2R67
   20    21	 1 ;      CG2R61     CG2R61
   20    52	 1 ;      CG2R61      HGR61
   21    22	 1 ;      CG2R61     CG2R61
   21    53	 1 ;      CG2R61      HGR61
   22    54	 1 ;      CG2R61      HGR61
   23    28	 1 ;      CG2R67     CG2R61
   23    24	 1 ;      CG2R67     CG2R61
   24    25	 1 ;      CG2R61     CG2R61
   24    55	 1 ;      CG2R61      HGR61
   25    26	 1 ;      CG2R61     CG2R61
   25    56	 1 ;      CG2R61      HGR61
   26    27	 1 ;      CG2R61     CG2R61
   26    57	 1 ;      CG2R61      HGR61
   27    28	 1 ;      CG2R61     CG2R61
   27    58	 1 ;      CG2R61      HGR62
   28    29	 1 ;      CG2R61      CLGR1
   30    36	 1 ;      CG2R61     CG2R61
   30    31	 1 ;      CG2R61     CG2R61
   31    32	 1 ;      CG2R61     CG2R66
   31    59	 1 ;      CG2R61      HGR62
   32    34	 1 ;      CG2R66     CG2R61
   32    33	 1 ;      CG2R66       FGR1
   34    35	 1 ;      CG2R61     CG2R61
   34    60	 1 ;      CG2R61      HGR62
   35    36	 1 ;      CG2R61     CG2R61
   35    61	 1 ;      CG2R61      HGR61
   36    62	 1 ;      CG2R61      HGR61

[ pairs ]
;	ai	  aj funct			  c0			c1			  c2			c3
    1     4	 1
    1    39	 1
    1    40	 1
    1    43	 1
    1    44	 1
    1    46	 1
    1    47	 1
    1    48	 1
    1    22	 1
    1    18	 1
    2    17	 1
    2    49	 1
    2    50	 1
    2    11	 1
    2    13	 1
    2    45	 1
    2    10	 1
    2     5	 1
    3    16	 1
    3    14	 1
    3    12	 1
    3     9	 1
    3    41	 1
    3    42	 1
    3    43	 1
    3    44	 1
    3     6	 1
    3    30	 1
    4    37	 1
    4    38	 1
    4     7	 1
    4     8	 1
    4    36	 1
    4    31	 1
    4    15	 1
    4    13	 1
    4    45	 1
    5    39	 1
    5    40	 1
    5    41	 1
    5    42	 1
    5    12	 1
    5    43	 1
    5    44	 1
    5    15	 1
    5    35	 1
    5    62	 1
    5    32	 1
    5    59	 1
    6    11	 1
    6    36	 1
    6    31	 1
    6    41	 1
    6    42	 1
    7    30	 1
    7    10	 1
    7    15	 1
    8    30	 1
    8    10	 1
    8    15	 1
    9    11	 1
    9    30	 1
   10    39	 1
   10    40	 1
   10    12	 1
   10    43	 1
   10    44	 1
   10    30	 1
   11    16	 1
   11    14	 1
   11    39	 1
   11    40	 1
   11    41	 1
   11    42	 1
   11    30	 1
   11    46	 1
   11    47	 1
   11    48	 1
   12    17	 1
   12    49	 1
   12    50	 1
   12    37	 1
   12    38	 1
   13    16	 1
   13    14	 1
   13    43	 1
   13    44	 1
   14    17	 1
   14    49	 1
   14    50	 1
   14    37	 1
   14    38	 1
   14    45	 1
   15    41	 1
   15    42	 1
   16    37	 1
   16    38	 1
   16    45	 1
   16    21	 1
   16    54	 1
   16    19	 1
   16    51	 1
   17    20	 1
   17    23	 1
   17    53	 1
   18    49	 1
   18    50	 1
   18    21	 1
   18    54	 1
   18    52	 1
   18    28	 1
   18    24	 1
   19    22	 1
   19    53	 1
   19    29	 1
   63    19	 1
   19    27	 1
   19    25	 1
   19    55	 1
   20    51	 1
   20    28	 1
   20    24	 1
   20    54	 1
   21    23	 1
   22    49	 1
   22    50	 1
   22    51	 1
   22    52	 1
   23    51	 1
   23    52	 1
   23    26	 1
   23    56	 1
   23    58	 1
   24    29	 1
   63    24	 1
   24    27	 1
   24    57	 1
   25    28	 1
   25    58	 1
   26    55	 1
   26    29	 1
   63    26	 1
   27    56	 1
   28    55	 1
   28    57	 1
   29    58	 1
   63    58	 1
   30    34	 1
   30    33	 1
   30    61	 1
   31    35	 1
   31    62	 1
   31    60	 1
   32    36	 1
   32    61	 1
   33    59	 1
   33    35	 1
   33    60	 1
   34    59	 1
   34    62	 1
   36    59	 1
   36    60	 1
   37    39	 1
   37    40	 1
   38    39	 1
   38    40	 1
   43    45	 1
   44    45	 1
   45    46	 1
   45    47	 1
   45    48	 1
   52    53	 1
   53    54	 1
   55    56	 1
   56    57	 1
   57    58	 1
   60    61	 1
   61    62	 1

[ angles ]
;	ai	  aj	ak funct			c0			  c1			c2			  c3
   16     1    14	5 ;      CG324      NG3P1       HGP2
   16     1     2	5 ;      CG324      NG3P1      CG324
   16     1    12	5 ;      CG324      NG3P1      CG314
   14     1     2	5 ;       HGP2      NG3P1      CG324
   14     1    12	5 ;       HGP2      NG3P1      CG314
    2     1    12	5 ;      CG324      NG3P1      CG314
    1     2     3	5 ;      NG3P1      CG324      CG321
    1     2    37	5 ;      NG3P1      CG324       HGA2
    1     2    38	5 ;      NG3P1      CG324       HGA2
    3     2    37	5 ;      CG321      CG324       HGA2
    3     2    38	5 ;      CG321      CG324       HGA2
   37     2    38	5 ;       HGA2      CG324       HGA2
    2     3     4	5 ;      CG324      CG321     CG3C50
    2     3    39	5 ;      CG324      CG321       HGA2
    2     3    40	5 ;      CG324      CG321       HGA2
    4     3    39	5 ;     CG3C50      CG321       HGA2
    4     3    40	5 ;     CG3C50      CG321       HGA2
   39     3    40	5 ;       HGA2      CG321       HGA2
    3     4    10	5 ;      CG321     CG3C50     CG3C52
    3     4    11	5 ;      CG321     CG3C50      CG321
    3     4     5	5 ;      CG321     CG3C50     NG3C51
   10     4    11	5 ;     CG3C52     CG3C50      CG321
   10     4     5	5 ;     CG3C52     CG3C50     NG3C51
   11     4     5	5 ;      CG321     CG3C50     NG3C51
    4     5     6	5 ;     CG3C50     NG3C51      SG3O2
    4     5    30	5 ;     CG3C50     NG3C51     CG2R61
    6     5    30	5 ;      SG3O2     NG3C51     CG2R61
    9     6     5	5 ;     NG3C51      SG3O2     NG3C51
    9     6     7	5 ;     NG3C51      SG3O2      OG2P1
    9     6     8	5 ;     NG3C51      SG3O2      OG2P1
    5     6     7	5 ;     NG3C51      SG3O2      OG2P1
    5     6     8	5 ;     NG3C51      SG3O2      OG2P1
    7     6     8	5 ;      OG2P1      SG3O2      OG2P1
   10     9    15	5 ;     CG3C52     NG3C51       HGP1
   10     9     6	5 ;     CG3C52     NG3C51      SG3O2
   15     9     6	5 ;       HGP1     NG3C51      SG3O2
    9    10     4	5 ;     NG3C51     CG3C52     CG3C50
    9    10    41	5 ;     NG3C51     CG3C52       HGA2
    9    10    42	5 ;     NG3C51     CG3C52       HGA2
    4    10    41	5 ;     CG3C50     CG3C52       HGA2
    4    10    42	5 ;     CG3C50     CG3C52       HGA2
   41    10    42	5 ;       HGA2     CG3C52       HGA2
   12    11     4	5 ;      CG314      CG321     CG3C50
   12    11    43	5 ;      CG314      CG321       HGA2
   12    11    44	5 ;      CG314      CG321       HGA2
    4    11    43	5 ;     CG3C50      CG321       HGA2
    4    11    44	5 ;     CG3C50      CG321       HGA2
   43    11    44	5 ;       HGA2      CG321       HGA2
    1    12    11	5 ;      NG3P1      CG314      CG321
    1    12    13	5 ;      NG3P1      CG314      CG331
    1    12    45	5 ;      NG3P1      CG314       HGA1
   11    12    13	5 ;      CG321      CG314      CG331
   11    12    45	5 ;      CG321      CG314       HGA1
   13    12    45	5 ;      CG331      CG314       HGA1
   12    13    46	5 ;      CG314      CG331       HGA3
   12    13    47	5 ;      CG314      CG331       HGA3
   12    13    48	5 ;      CG314      CG331       HGA3
   46    13    47	5 ;       HGA3      CG331       HGA3
   46    13    48	5 ;       HGA3      CG331       HGA3
   47    13    48	5 ;       HGA3      CG331       HGA3
   17    16     1	5 ;     CG2R61      CG324      NG3P1
   17    16    49	5 ;     CG2R61      CG324       HGA2
   17    16    50	5 ;     CG2R61      CG324       HGA2
    1    16    49	5 ;      NG3P1      CG324       HGA2
    1    16    50	5 ;      NG3P1      CG324       HGA2
   49    16    50	5 ;       HGA2      CG324       HGA2
   22    17    18	5 ;     CG2R61     CG2R61     CG2R61
   22    17    16	5 ;     CG2R61     CG2R61      CG324
   18    17    16	5 ;     CG2R61     CG2R61      CG324
   19    18    17	5 ;     CG2R67     CG2R61     CG2R61
   19    18    51	5 ;     CG2R67     CG2R61      HGR61
   17    18    51	5 ;     CG2R61     CG2R61      HGR61
   20    19    23	5 ;     CG2R61     CG2R67     CG2R67
   20    19    18	5 ;     CG2R61     CG2R67     CG2R61
   23    19    18	5 ;     CG2R67     CG2R67     CG2R61
   21    20    19	5 ;     CG2R61     CG2R61     CG2R67
   21    20    52	5 ;     CG2R61     CG2R61      HGR61
   19    20    52	5 ;     CG2R67     CG2R61      HGR61
   20    21    22	5 ;     CG2R61     CG2R61     CG2R61
   20    21    53	5 ;     CG2R61     CG2R61      HGR61
   22    21    53	5 ;     CG2R61     CG2R61      HGR61
   21    22    17	5 ;     CG2R61     CG2R61     CG2R61
   21    22    54	5 ;     CG2R61     CG2R61      HGR61
   17    22    54	5 ;     CG2R61     CG2R61      HGR61
   28    23    19	5 ;     CG2R61     CG2R67     CG2R67
   28    23    24	5 ;     CG2R61     CG2R67     CG2R61
   19    23    24	5 ;     CG2R67     CG2R67     CG2R61
   23    24    25	5 ;     CG2R67     CG2R61     CG2R61
   23    24    55	5 ;     CG2R67     CG2R61      HGR61
   25    24    55	5 ;     CG2R61     CG2R61      HGR61
   26    25    24	5 ;     CG2R61     CG2R61     CG2R61
   26    25    56	5 ;     CG2R61     CG2R61      HGR61
   24    25    56	5 ;     CG2R61     CG2R61      HGR61
   27    26    25	5 ;     CG2R61     CG2R61     CG2R61
   27    26    57	5 ;     CG2R61     CG2R61      HGR61
   25    26    57	5 ;     CG2R61     CG2R61      HGR61
   28    27    26	5 ;     CG2R61     CG2R61     CG2R61
   28    27    58	5 ;     CG2R61     CG2R61      HGR62
   26    27    58	5 ;     CG2R61     CG2R61      HGR62
   29    28    27	5 ;      CLGR1     CG2R61     CG2R61
   29    28    23	5 ;      CLGR1     CG2R61     CG2R67
   27    28    23	5 ;     CG2R61     CG2R61     CG2R67
    5    30    36	5 ;     NG3C51     CG2R61     CG2R61
    5    30    31	5 ;     NG3C51     CG2R61     CG2R61
   36    30    31	5 ;     CG2R61     CG2R61     CG2R61
   30    31    32	5 ;     CG2R61     CG2R61     CG2R66
   30    31    59	5 ;     CG2R61     CG2R61      HGR62
   32    31    59	5 ;     CG2R66     CG2R61      HGR62
   31    32    34	5 ;     CG2R61     CG2R66     CG2R61
   31    32    33	5 ;     CG2R61     CG2R66       FGR1
   34    32    33	5 ;     CG2R61     CG2R66       FGR1
   35    34    32	5 ;     CG2R61     CG2R61     CG2R66
   35    34    60	5 ;     CG2R61     CG2R61      HGR62
   32    34    60	5 ;     CG2R66     CG2R61      HGR62
   36    35    34	5 ;     CG2R61     CG2R61     CG2R61
   36    35    61	5 ;     CG2R61     CG2R61      HGR61
   34    35    61	5 ;     CG2R61     CG2R61      HGR61
   30    36    35	5 ;     CG2R61     CG2R61     CG2R61
   30    36    62	5 ;     CG2R61     CG2R61      HGR61
   35    36    62	5 ;     CG2R61     CG2R61      HGR61

[ dihedrals ]
;	ai	  aj	ak	  al funct			  c0			c1			  c2			c3			  c4			c5
   14     1    16    17	 9 ;       HGP2      NG3P1      CG324     CG2R61
   14     1    16    49	 9 ;       HGP2      NG3P1      CG324       HGA2
   14     1    16    50	 9 ;       HGP2      NG3P1      CG324       HGA2
    2     1    16    17	 9 ;      CG324      NG3P1      CG324     CG2R61
    2     1    16    49	 9 ;      CG324      NG3P1      CG324       HGA2
    2     1    16    50	 9 ;      CG324      NG3P1      CG324       HGA2
   12     1    16    17	 9 ;      CG314      NG3P1      CG324     CG2R61
   12     1    16    49	 9 ;      CG314      NG3P1      CG324       HGA2
   12     1    16    50	 9 ;      CG314      NG3P1      CG324       HGA2
   16     1     2     3	 9 ;      CG324      NG3P1      CG324      CG321
   16     1     2    37	 9 ;      CG324      NG3P1      CG324       HGA2
   16     1     2    38	 9 ;      CG324      NG3P1      CG324       HGA2
   14     1     2     3	 9 ;       HGP2      NG3P1      CG324      CG321
   14     1     2    37	 9 ;       HGP2      NG3P1      CG324       HGA2
   14     1     2    38	 9 ;       HGP2      NG3P1      CG324       HGA2
   12     1     2     3	 9 ;      CG314      NG3P1      CG324      CG321
   12     1     2    37	 9 ;      CG314      NG3P1      CG324       HGA2
   12     1     2    38	 9 ;      CG314      NG3P1      CG324       HGA2
   16     1    12    11	 9 ;      CG324      NG3P1      CG314      CG321
   16     1    12    13	 9 ;      CG324      NG3P1      CG314      CG331
   16     1    12    45	 9 ;      CG324      NG3P1      CG314       HGA1
   14     1    12    11	 9 ;       HGP2      NG3P1      CG314      CG321
   14     1    12    13	 9 ;       HGP2      NG3P1      CG314      CG331
   14     1    12    45	 9 ;       HGP2      NG3P1      CG314       HGA1
    2     1    12    11	 9 ;      CG324      NG3P1      CG314      CG321
    2     1    12    13	 9 ;      CG324      NG3P1      CG314      CG331
    2     1    12    45	 9 ;      CG324      NG3P1      CG314       HGA1
    1     2     3     4	 9 ;      NG3P1      CG324      CG321     CG3C50
    1     2     3    39	 9 ;      NG3P1      CG324      CG321       HGA2
    1     2     3    40	 9 ;      NG3P1      CG324      CG321       HGA2
   37     2     3     4	 9 ;       HGA2      CG324      CG321     CG3C50
   37     2     3    39	 9 ;       HGA2      CG324      CG321       HGA2
   37     2     3    40	 9 ;       HGA2      CG324      CG321       HGA2
   38     2     3     4	 9 ;       HGA2      CG324      CG321     CG3C50
   38     2     3    39	 9 ;       HGA2      CG324      CG321       HGA2
   38     2     3    40	 9 ;       HGA2      CG324      CG321       HGA2
    2     3     4    10	 9 ;      CG324      CG321     CG3C50     CG3C52
    2     3     4    11	 9 ;      CG324      CG321     CG3C50      CG321
    2     3     4     5	 9 ;      CG324      CG321     CG3C50     NG3C51
   39     3     4    10	 9 ;       HGA2      CG321     CG3C50     CG3C52
   39     3     4    11	 9 ;       HGA2      CG321     CG3C50      CG321
   39     3     4     5	 9 ;       HGA2      CG321     CG3C50     NG3C51
   40     3     4    10	 9 ;       HGA2      CG321     CG3C50     CG3C52
   40     3     4    11	 9 ;       HGA2      CG321     CG3C50      CG321
   40     3     4     5	 9 ;       HGA2      CG321     CG3C50     NG3C51
    3     4    10     9	 9 ;      CG321     CG3C50     CG3C52     NG3C51
    3     4    10    41	 9 ;      CG321     CG3C50     CG3C52       HGA2
    3     4    10    42	 9 ;      CG321     CG3C50     CG3C52       HGA2
   11     4    10     9	 9 ;      CG321     CG3C50     CG3C52     NG3C51
   11     4    10    41	 9 ;      CG321     CG3C50     CG3C52       HGA2
   11     4    10    42	 9 ;      CG321     CG3C50     CG3C52       HGA2
    5     4    10     9	 9 ;     NG3C51     CG3C50     CG3C52     NG3C51
    5     4    10    41	 9 ;     NG3C51     CG3C50     CG3C52       HGA2
    5     4    10    42	 9 ;     NG3C51     CG3C50     CG3C52       HGA2
    3     4    11    12	 9 ;      CG321     CG3C50      CG321      CG314
    3     4    11    43	 9 ;      CG321     CG3C50      CG321       HGA2
    3     4    11    44	 9 ;      CG321     CG3C50      CG321       HGA2
   10     4    11    12	 9 ;     CG3C52     CG3C50      CG321      CG314
   10     4    11    43	 9 ;     CG3C52     CG3C50      CG321       HGA2
   10     4    11    44	 9 ;     CG3C52     CG3C50      CG321       HGA2
    5     4    11    12	 9 ;     NG3C51     CG3C50      CG321      CG314
    5     4    11    43	 9 ;     NG3C51     CG3C50      CG321       HGA2
    5     4    11    44	 9 ;     NG3C51     CG3C50      CG321       HGA2
    3     4     5     6	 9 ;      CG321     CG3C50     NG3C51      SG3O2
    3     4     5    30	 9 ;      CG321     CG3C50     NG3C51     CG2R61
   10     4     5     6	 9 ;     CG3C52     CG3C50     NG3C51      SG3O2
   10     4     5    30	 9 ;     CG3C52     CG3C50     NG3C51     CG2R61
   11     4     5     6	 9 ;      CG321     CG3C50     NG3C51      SG3O2
   11     4     5    30	 9 ;      CG321     CG3C50     NG3C51     CG2R61
    4     5     6     9	 9 ;     CG3C50     NG3C51      SG3O2     NG3C51
    4     5     6     7	 9 ;     CG3C50     NG3C51      SG3O2      OG2P1
    4     5     6     8	 9 ;     CG3C50     NG3C51      SG3O2      OG2P1
   30     5     6     9	 9 ;     CG2R61     NG3C51      SG3O2     NG3C51
   30     5     6     7	 9 ;     CG2R61     NG3C51      SG3O2      OG2P1
   30     5     6     8	 9 ;     CG2R61     NG3C51      SG3O2      OG2P1
    4     5    30    36	 9 ;     CG3C50     NG3C51     CG2R61     CG2R61
    4     5    30    31	 9 ;     CG3C50     NG3C51     CG2R61     CG2R61
    6     5    30    36	 9 ;      SG3O2     NG3C51     CG2R61     CG2R61
    6     5    30    31	 9 ;      SG3O2     NG3C51     CG2R61     CG2R61
    5     6     9    10	 9 ;     NG3C51      SG3O2     NG3C51     CG3C52
    5     6     9    15	 9 ;     NG3C51      SG3O2     NG3C51       HGP1
    7     6     9    10	 9 ;      OG2P1      SG3O2     NG3C51     CG3C52
    7     6     9    15	 9 ;      OG2P1      SG3O2     NG3C51       HGP1
    8     6     9    10	 9 ;      OG2P1      SG3O2     NG3C51     CG3C52
    8     6     9    15	 9 ;      OG2P1      SG3O2     NG3C51       HGP1
   15     9    10     4	 9 ;       HGP1     NG3C51     CG3C52     CG3C50
   15     9    10    41	 9 ;       HGP1     NG3C51     CG3C52       HGA2
   15     9    10    42	 9 ;       HGP1     NG3C51     CG3C52       HGA2
    6     9    10     4	 9 ;      SG3O2     NG3C51     CG3C52     CG3C50
    6     9    10    41	 9 ;      SG3O2     NG3C51     CG3C52       HGA2
    6     9    10    42	 9 ;      SG3O2     NG3C51     CG3C52       HGA2
    4    11    12     1	 9 ;     CG3C50      CG321      CG314      NG3P1
    4    11    12    13	 9 ;     CG3C50      CG321      CG314      CG331
    4    11    12    45	 9 ;     CG3C50      CG321      CG314       HGA1
   43    11    12     1	 9 ;       HGA2      CG321      CG314      NG3P1
   43    11    12    13	 9 ;       HGA2      CG321      CG314      CG331
   43    11    12    45	 9 ;       HGA2      CG321      CG314       HGA1
   44    11    12     1	 9 ;       HGA2      CG321      CG314      NG3P1
   44    11    12    13	 9 ;       HGA2      CG321      CG314      CG331
   44    11    12    45	 9 ;       HGA2      CG321      CG314       HGA1
    1    12    13    46	 9 ;      NG3P1      CG314      CG331       HGA3
    1    12    13    47	 9 ;      NG3P1      CG314      CG331       HGA3
    1    12    13    48	 9 ;      NG3P1      CG314      CG331       HGA3
   11    12    13    46	 9 ;      CG321      CG314      CG331       HGA3
   11    12    13    47	 9 ;      CG321      CG314      CG331       HGA3
   11    12    13    48	 9 ;      CG321      CG314      CG331       HGA3
   45    12    13    46	 9 ;       HGA1      CG314      CG331       HGA3
   45    12    13    47	 9 ;       HGA1      CG314      CG331       HGA3
   45    12    13    48	 9 ;       HGA1      CG314      CG331       HGA3
    1    16    17    22	 9 ;      NG3P1      CG324     CG2R61     CG2R61
    1    16    17    18	 9 ;      NG3P1      CG324     CG2R61     CG2R61
   49    16    17    22	 9 ;       HGA2      CG324     CG2R61     CG2R61
   49    16    17    18	 9 ;       HGA2      CG324     CG2R61     CG2R61
   50    16    17    22	 9 ;       HGA2      CG324     CG2R61     CG2R61
   50    16    17    18	 9 ;       HGA2      CG324     CG2R61     CG2R61
   18    17    22    21	 9 ;     CG2R61     CG2R61     CG2R61     CG2R61
   18    17    22    54	 9 ;     CG2R61     CG2R61     CG2R61      HGR61
   16    17    22    21	 9 ;      CG324     CG2R61     CG2R61     CG2R61
   16    17    22    54	 9 ;      CG324     CG2R61     CG2R61      HGR61
   22    17    18    19	 9 ;     CG2R61     CG2R61     CG2R61     CG2R67
   22    17    18    51	 9 ;     CG2R61     CG2R61     CG2R61      HGR61
   16    17    18    19	 9 ;      CG324     CG2R61     CG2R61     CG2R67
   16    17    18    51	 9 ;      CG324     CG2R61     CG2R61      HGR61
   17    18    19    20	 9 ;     CG2R61     CG2R61     CG2R67     CG2R61
   17    18    19    23	 9 ;     CG2R61     CG2R61     CG2R67     CG2R67
   51    18    19    20	 9 ;      HGR61     CG2R61     CG2R67     CG2R61
   51    18    19    23	 9 ;      HGR61     CG2R61     CG2R67     CG2R67
   23    19    20    21	 9 ;     CG2R67     CG2R67     CG2R61     CG2R61
   23    19    20    52	 9 ;     CG2R67     CG2R67     CG2R61      HGR61
   18    19    20    21	 9 ;     CG2R61     CG2R67     CG2R61     CG2R61
   18    19    20    52	 9 ;     CG2R61     CG2R67     CG2R61      HGR61
   20    19    23    28	 9 ;     CG2R61     CG2R67     CG2R67     CG2R61
   20    19    23    24	 9 ;     CG2R61     CG2R67     CG2R67     CG2R61
   18    19    23    28	 9 ;     CG2R61     CG2R67     CG2R67     CG2R61
   18    19    23    24	 9 ;     CG2R61     CG2R67     CG2R67     CG2R61
   19    20    21    22	 9 ;     CG2R67     CG2R61     CG2R61     CG2R61
   19    20    21    53	 9 ;     CG2R67     CG2R61     CG2R61      HGR61
   52    20    21    22	 9 ;      HGR61     CG2R61     CG2R61     CG2R61
   52    20    21    53	 9 ;      HGR61     CG2R61     CG2R61      HGR61
   20    21    22    17	 9 ;     CG2R61     CG2R61     CG2R61     CG2R61
   20    21    22    54	 9 ;     CG2R61     CG2R61     CG2R61      HGR61
   53    21    22    17	 9 ;      HGR61     CG2R61     CG2R61     CG2R61
   53    21    22    54	 9 ;      HGR61     CG2R61     CG2R61      HGR61
   19    23    28    29	 9 ;     CG2R67     CG2R67     CG2R61      CLGR1
   19    23    28    27	 9 ;     CG2R67     CG2R67     CG2R61     CG2R61
   24    23    28    29	 9 ;     CG2R61     CG2R67     CG2R61      CLGR1
   24    23    28    27	 9 ;     CG2R61     CG2R67     CG2R61     CG2R61
   28    23    24    25	 9 ;     CG2R61     CG2R67     CG2R61     CG2R61
   28    23    24    55	 9 ;     CG2R61     CG2R67     CG2R61      HGR61
   19    23    24    25	 9 ;     CG2R67     CG2R67     CG2R61     CG2R61
   19    23    24    55	 9 ;     CG2R67     CG2R67     CG2R61      HGR61
   23    24    25    26	 9 ;     CG2R67     CG2R61     CG2R61     CG2R61
   23    24    25    56	 9 ;     CG2R67     CG2R61     CG2R61      HGR61
   55    24    25    26	 9 ;      HGR61     CG2R61     CG2R61     CG2R61
   55    24    25    56	 9 ;      HGR61     CG2R61     CG2R61      HGR61
   24    25    26    27	 9 ;     CG2R61     CG2R61     CG2R61     CG2R61
   24    25    26    57	 9 ;     CG2R61     CG2R61     CG2R61      HGR61
   56    25    26    27	 9 ;      HGR61     CG2R61     CG2R61     CG2R61
   56    25    26    57	 9 ;      HGR61     CG2R61     CG2R61      HGR61
   25    26    27    28	 9 ;     CG2R61     CG2R61     CG2R61     CG2R61
   25    26    27    58	 9 ;     CG2R61     CG2R61     CG2R61      HGR62
   57    26    27    28	 9 ;      HGR61     CG2R61     CG2R61     CG2R61
   57    26    27    58	 9 ;      HGR61     CG2R61     CG2R61      HGR62
   26    27    28    29	 9 ;     CG2R61     CG2R61     CG2R61      CLGR1
   26    27    28    23	 9 ;     CG2R61     CG2R61     CG2R61     CG2R67
   58    27    28    29	 9 ;      HGR62     CG2R61     CG2R61      CLGR1
   58    27    28    23	 9 ;      HGR62     CG2R61     CG2R61     CG2R67
    5    30    36    35	 9 ;     NG3C51     CG2R61     CG2R61     CG2R61
    5    30    36    62	 9 ;     NG3C51     CG2R61     CG2R61      HGR61
   31    30    36    35	 9 ;     CG2R61     CG2R61     CG2R61     CG2R61
   31    30    36    62	 9 ;     CG2R61     CG2R61     CG2R61      HGR61
    5    30    31    32	 9 ;     NG3C51     CG2R61     CG2R61     CG2R66
    5    30    31    59	 9 ;     NG3C51     CG2R61     CG2R61      HGR62
   36    30    31    32	 9 ;     CG2R61     CG2R61     CG2R61     CG2R66
   36    30    31    59	 9 ;     CG2R61     CG2R61     CG2R61      HGR62
   30    31    32    34	 9 ;     CG2R61     CG2R61     CG2R66     CG2R61
   30    31    32    33	 9 ;     CG2R61     CG2R61     CG2R66       FGR1
   59    31    32    34	 9 ;      HGR62     CG2R61     CG2R66     CG2R61
   59    31    32    33	 9 ;      HGR62     CG2R61     CG2R66       FGR1
   31    32    34    35	 9 ;     CG2R61     CG2R66     CG2R61     CG2R61
   31    32    34    60	 9 ;     CG2R61     CG2R66     CG2R61      HGR62
   33    32    34    35	 9 ;       FGR1     CG2R66     CG2R61     CG2R61
   33    32    34    60	 9 ;       FGR1     CG2R66     CG2R61      HGR62
   32    34    35    36	 9 ;     CG2R66     CG2R61     CG2R61     CG2R61
   32    34    35    61	 9 ;     CG2R66     CG2R61     CG2R61      HGR61
   60    34    35    36	 9 ;      HGR62     CG2R61     CG2R61     CG2R61
   60    34    35    61	 9 ;      HGR62     CG2R61     CG2R61      HGR61
   34    35    36    30	 9 ;     CG2R61     CG2R61     CG2R61     CG2R61
   34    35    36    62	 9 ;     CG2R61     CG2R61     CG2R61      HGR61
   61    35    36    30	 9 ;      HGR61     CG2R61     CG2R61     CG2R61
   61    35    36    62	 9 ;      HGR61     CG2R61     CG2R61      HGR61

[ virtual_sites2 ]
; Site   from				funct a
   63    29    28     2   -0.164

[ exclusions ]
;	ai	  aj
   29    63
   63    28
   63    27
   63    23
   63    19
   63    24
   63    26
   63    58

