; Created by cgenff_charmm2gmx.py

[ moleculetype ]
; Name			   nrexcl
LIG				 3

[ atoms ]
;	 nr		  type	resnr residue  atom   cgnr	   charge		mass  typeB    chargeB		massB
; residue	 1 LIG rtp LIG q	qsum
     1      CG2O1      1    LIG     C1      1      0.302     12.011   ;
     2      OG2D1      1    LIG     O1      2     -0.463     15.999   ;
     3      NG2S1      1    LIG     N1      3     -0.226     14.007   ;
     4       HGP1      1    LIG     H1      4      0.262      1.008   ;
     5      CG311      1    LIG     C2      5      0.010     12.011   ;
     6      CG321      1    LIG     C3      6     -0.111     12.011   ;
     7     CG2R61      1    LIG     C4      7     -0.019     12.011   ;
     8     CG2R61      1    LIG     C5      8     -0.123     12.011   ;
     9     CG2R61      1    LIG     C6      9     -0.112     12.011   ;
    10     CG2R61      1    LIG     C7     10     -0.116     12.011   ;
    11     CG2R61      1    LIG     C8     11     -0.112     12.011   ;
    12     CG2R61      1    LIG     C9     12     -0.123     12.011   ;
    13      CG311      1    LIG    C10     13      0.094     12.011   ;
    14      CG324      1    LIG    C11     14      0.178     12.011   ;
    15      NG3P2      1    LIG     N2     15     -0.444     14.007   ;
    16       HGP2      1    LIG     H2     16      0.348      1.008   ;
    17       HGP2      1    LIG     H3     17      0.348      1.008   ;
    18      CG324      1    LIG    C12     18      0.171     12.011   ;
    19     CG2R61      1    LIG    C13     19      0.055     12.011   ;
    20     CG2R61      1    LIG    C14     20     -0.038     12.011   ;
    21     CG2R61      1    LIG    C15     21     -0.278     12.011   ;
    22     CG2R61      1    LIG    C16     22     -0.035     12.011   ;
    23     CG2R61      1    LIG    C17     23     -0.089     12.011   ;
    24     CG2R61      1    LIG    C18     24     -0.119     12.011   ;
    25      CG302      1    LIG    C19     25      0.605     12.011   ;
    26       FGA3      1    LIG     F1     26     -0.176     18.998   ;
    27       FGA3      1    LIG     F2     27     -0.176     18.998   ;
    28       FGA3      1    LIG     F3     28     -0.176     18.998   ;
    29      OG311      1    LIG     O2     29     -0.625     15.999   ;
    30       HGP1      1    LIG     H4     30      0.415      1.008   ;
    31     CG2R61      1    LIG    C20     31     -0.105     12.011   ;
    32     CG2R61      1    LIG    C21     32     -0.061     12.011   ;
    33     CG2R67      1    LIG    C22     33      0.006     12.011   ;
    34     CG2R61      1    LIG    C23     34     -0.124     12.011   ;
    35     CG2R61      1    LIG    C24     35      0.149     12.011   ;
    36     CG2R61      1    LIG    C25     36     -0.061     12.011   ;
    37     CG2R67      1    LIG    C26     37      0.006     12.011   ;
    38     CG2R61      1    LIG    C27     38     -0.119     12.011   ;
    39     CG2R61      1    LIG    C28     39     -0.119     12.011   ;
    40     CG2R61      1    LIG    C29     40     -0.110     12.011   ;
    41     CG2R61      1    LIG    C30     41     -0.119     12.011   ;
    42     CG2R61      1    LIG    C31     42     -0.119     12.011   ;
    43      NG301      1    LIG     N3     43     -0.231     14.007   ;
    44      SG3O2      1    LIG      S     44      0.466     32.060   ;
    45      OG2P1      1    LIG     O3     45     -0.412     15.999   ;
    46      OG2P1      1    LIG     O4     46     -0.412     15.999   ;
    47      CG331      1    LIG    C32     47      0.033     12.011   ;
    48     CG2R61      1    LIG    C33     48      0.149     12.011   ;
    49     CG2R61      1    LIG    C34     49     -0.123     12.011   ;
    50     CG2R61      1    LIG    C35     50     -0.112     12.011   ;
    51     CG2R61      1    LIG    C36     51     -0.116     12.011   ;
    52     CG2R61      1    LIG    C37     52     -0.112     12.011   ;
    53     CG2R61      1    LIG    C38     53     -0.123     12.011   ;
    54       HGA1      1    LIG     HC     54      0.090      1.008   ;
    55       HGA2      1    LIG    HC2     55      0.090      1.008   ;
    56       HGA2      1    LIG    HC3     56      0.090      1.008   ;
    57      HGR61      1    LIG    HC1     57      0.116      1.008   ;
    58      HGR61      1    LIG    HC4     58      0.116      1.008   ;
    59      HGR61      1    LIG    HC5     59      0.116      1.008   ;
    60      HGR61      1    LIG    HC6     60      0.116      1.008   ;
    61      HGR61      1    LIG    HC7     61      0.116      1.008   ;
    62       HGA1      1    LIG    HC8     62      0.090      1.008   ;
    63       HGA2      1    LIG    HC9     63      0.090      1.008   ;
    64       HGA2      1    LIG   HC10     64      0.090      1.008   ;
    65       HGA2      1    LIG   HC11     65      0.090      1.008   ;
    66       HGA2      1    LIG   HC12     66      0.090      1.008   ;
    67      HGR61      1    LIG   HC13     67      0.116      1.008   ;
    68      HGR61      1    LIG   HC14     68      0.116      1.008   ;
    69      HGR61      1    LIG   HC15     69      0.116      1.008   ;
    70      HGR61      1    LIG   HC16     70      0.116      1.008   ;
    71      HGR61      1    LIG   HC17     71      0.116      1.008   ;
    72      HGR61      1    LIG   HC18     72      0.116      1.008   ;
    73      HGR61      1    LIG   HC19     73      0.116      1.008   ;
    74      HGR61      1    LIG   HC20     74      0.116      1.008   ;
    75      HGR61      1    LIG   HC21     75      0.116      1.008   ;
    76      HGR61      1    LIG   HC22     76      0.116      1.008   ;
    77      HGR61      1    LIG   HC23     77      0.116      1.008   ;
    78      HGR61      1    LIG   HC24     78      0.116      1.008   ;
    79      HGR61      1    LIG   HC25     79      0.116      1.008   ;
    80      HGR61      1    LIG   HC26     80      0.116      1.008   ;
    81      HGR61      1    LIG   HC27     81      0.116      1.008   ;
    82      HGR61      1    LIG   HC28     82      0.116      1.008   ;
    83      HGR61      1    LIG   HC29     83      0.116      1.008   ;
    84       HGA3      1    LIG   HC30     84      0.090      1.008   ;
    85       HGA3      1    LIG   HC31     85      0.090      1.008   ;
    86       HGA3      1    LIG   HC32     86      0.090      1.008   ;

[ bonds ]
;	ai	  aj funct			  c0			c1			  c2			c3
    1    31	 1 ;       CG2O1     CG2R61
    1     2	 1 ;       CG2O1      OG2D1
    1     3	 1 ;       CG2O1      NG2S1
    3     4	 1 ;       NG2S1       HGP1
    3     5	 1 ;       NG2S1      CG311
    5    13	 1 ;       CG311      CG311
    5     6	 1 ;       CG311      CG321
    5    54	 1 ;       CG311       HGA1
    6     7	 1 ;       CG321     CG2R61
    6    55	 1 ;       CG321       HGA2
    6    56	 1 ;       CG321       HGA2
    7     8	 1 ;      CG2R61     CG2R61
    7    12	 1 ;      CG2R61     CG2R61
    8     9	 1 ;      CG2R61     CG2R61
    8    57	 1 ;      CG2R61      HGR61
    9    10	 1 ;      CG2R61     CG2R61
    9    58	 1 ;      CG2R61      HGR61
   10    11	 1 ;      CG2R61     CG2R61
   10    59	 1 ;      CG2R61      HGR61
   11    12	 1 ;      CG2R61     CG2R61
   11    60	 1 ;      CG2R61      HGR61
   12    61	 1 ;      CG2R61      HGR61
   13    14	 1 ;       CG311      CG324
   13    29	 1 ;       CG311      OG311
   13    62	 1 ;       CG311       HGA1
   14    15	 1 ;       CG324      NG3P2
   14    63	 1 ;       CG324       HGA2
   14    64	 1 ;       CG324       HGA2
   15    16	 1 ;       NG3P2       HGP2
   15    18	 1 ;       NG3P2      CG324
   15    17	 1 ;       NG3P2       HGP2
   18    19	 1 ;       CG324     CG2R61
   18    65	 1 ;       CG324       HGA2
   18    66	 1 ;       CG324       HGA2
   19    24	 1 ;      CG2R61     CG2R61
   19    20	 1 ;      CG2R61     CG2R61
   20    21	 1 ;      CG2R61     CG2R61
   20    67	 1 ;      CG2R61      HGR61
   21    22	 1 ;      CG2R61     CG2R61
   21    25	 1 ;      CG2R61      CG302
   22    23	 1 ;      CG2R61     CG2R61
   22    68	 1 ;      CG2R61      HGR61
   23    24	 1 ;      CG2R61     CG2R61
   23    69	 1 ;      CG2R61      HGR61
   24    70	 1 ;      CG2R61      HGR61
   25    28	 1 ;       CG302       FGA3
   25    26	 1 ;       CG302       FGA3
   25    27	 1 ;       CG302       FGA3
   29    30	 1 ;       OG311       HGP1
   31    36	 1 ;      CG2R61     CG2R61
   31    32	 1 ;      CG2R61     CG2R61
   32    33	 1 ;      CG2R61     CG2R67
   32    71	 1 ;      CG2R61      HGR61
   33    34	 1 ;      CG2R67     CG2R61
   33    37	 1 ;      CG2R67     CG2R67
   34    35	 1 ;      CG2R61     CG2R61
   34    72	 1 ;      CG2R61      HGR61
   35    43	 1 ;      CG2R61      NG301
   35    36	 1 ;      CG2R61     CG2R61
   36    73	 1 ;      CG2R61      HGR61
   37    42	 1 ;      CG2R67     CG2R61
   37    38	 1 ;      CG2R67     CG2R61
   38    39	 1 ;      CG2R61     CG2R61
   38    74	 1 ;      CG2R61      HGR61
   39    40	 1 ;      CG2R61     CG2R61
   39    75	 1 ;      CG2R61      HGR61
   40    41	 1 ;      CG2R61     CG2R61
   40    76	 1 ;      CG2R61      HGR61
   41    42	 1 ;      CG2R61     CG2R61
   41    77	 1 ;      CG2R61      HGR61
   42    78	 1 ;      CG2R61      HGR61
   43    44	 1 ;       NG301      SG3O2
   43    48	 1 ;       NG301     CG2R61
   44    47	 1 ;       SG3O2      CG331
   44    46	 1 ;       SG3O2      OG2P1
   44    45	 1 ;       SG3O2      OG2P1
   47    84	 1 ;       CG331       HGA3
   47    85	 1 ;       CG331       HGA3
   47    86	 1 ;       CG331       HGA3
   48    49	 1 ;      CG2R61     CG2R61
   48    53	 1 ;      CG2R61     CG2R61
   49    50	 1 ;      CG2R61     CG2R61
   49    79	 1 ;      CG2R61      HGR61
   50    51	 1 ;      CG2R61     CG2R61
   50    80	 1 ;      CG2R61      HGR61
   51    52	 1 ;      CG2R61     CG2R61
   51    81	 1 ;      CG2R61      HGR61
   52    53	 1 ;      CG2R61     CG2R61
   52    82	 1 ;      CG2R61      HGR61
   53    83	 1 ;      CG2R61      HGR61

[ pairs ]
;	ai	  aj funct			  c0			c1			  c2			c3
    1    13	 1
    1     6	 1
    1    54	 1
    1    35	 1
    1    73	 1
    1    33	 1
    1    71	 1
    2    36	 1
    2    32	 1
    2     4	 1
    2     5	 1
    3    36	 1
    3    32	 1
    3    14	 1
    3    29	 1
    3    62	 1
    3     7	 1
    3    55	 1
    3    56	 1
    4    31	 1
    4    13	 1
    4     6	 1
    4    54	 1
    5    31	 1
    5     8	 1
    5    12	 1
    5    15	 1
    5    63	 1
    5    64	 1
    5    30	 1
    6    14	 1
    6    29	 1
    6    62	 1
    6     9	 1
    6    57	 1
    6    11	 1
    6    61	 1
    7    13	 1
    7    54	 1
    7    10	 1
    7    58	 1
    7    60	 1
    8    55	 1
    8    56	 1
    8    11	 1
    8    61	 1
    8    59	 1
    9    12	 1
    9    60	 1
   10    57	 1
   10    61	 1
   11    58	 1
   12    55	 1
   12    56	 1
   12    57	 1
   12    59	 1
   13    55	 1
   13    56	 1
   13    16	 1
   13    18	 1
   13    17	 1
   14    54	 1
   14    30	 1
   14    19	 1
   14    65	 1
   14    66	 1
   15    29	 1
   15    62	 1
   15    24	 1
   15    20	 1
   16    63	 1
   16    64	 1
   16    19	 1
   16    65	 1
   16    66	 1
   17    63	 1
   17    64	 1
   17    19	 1
   17    65	 1
   17    66	 1
   18    63	 1
   18    64	 1
   18    23	 1
   18    70	 1
   18    21	 1
   18    67	 1
   19    22	 1
   19    25	 1
   19    69	 1
   20    65	 1
   20    66	 1
   20    23	 1
   20    70	 1
   20    68	 1
   20    28	 1
   20    26	 1
   20    27	 1
   21    24	 1
   21    69	 1
   22    67	 1
   22    28	 1
   22    26	 1
   22    27	 1
   22    70	 1
   23    25	 1
   24    65	 1
   24    66	 1
   24    67	 1
   24    68	 1
   25    67	 1
   25    68	 1
   29    54	 1
   29    63	 1
   29    64	 1
   30    62	 1
   31    34	 1
   31    37	 1
   31    43	 1
   32    35	 1
   32    73	 1
   32    72	 1
   32    42	 1
   32    38	 1
   33    36	 1
   33    43	 1
   33    41	 1
   33    78	 1
   33    39	 1
   33    74	 1
   34    71	 1
   34    42	 1
   34    38	 1
   34    44	 1
   34    48	 1
   34    73	 1
   35    37	 1
   35    47	 1
   35    46	 1
   35    45	 1
   35    49	 1
   35    53	 1
   36    71	 1
   36    72	 1
   36    44	 1
   36    48	 1
   37    71	 1
   37    72	 1
   37    40	 1
   37    75	 1
   37    77	 1
   38    41	 1
   38    78	 1
   38    76	 1
   39    42	 1
   39    77	 1
   40    74	 1
   40    78	 1
   41    75	 1
   42    74	 1
   42    76	 1
   43    72	 1
   43    73	 1
   43    84	 1
   43    85	 1
   43    86	 1
   43    50	 1
   43    79	 1
   43    52	 1
   43    83	 1
   44    49	 1
   44    53	 1
   45    48	 1
   45    84	 1
   45    85	 1
   45    86	 1
   46    48	 1
   46    84	 1
   46    85	 1
   46    86	 1
   47    48	 1
   48    51	 1
   48    80	 1
   48    82	 1
   49    52	 1
   49    83	 1
   49    81	 1
   50    53	 1
   50    82	 1
   51    79	 1
   51    83	 1
   52    80	 1
   53    79	 1
   53    81	 1
   54    62	 1
   54    55	 1
   54    56	 1
   57    58	 1
   58    59	 1
   59    60	 1
   60    61	 1
   62    63	 1
   62    64	 1
   68    69	 1
   69    70	 1
   74    75	 1
   75    76	 1
   76    77	 1
   77    78	 1
   79    80	 1
   80    81	 1
   81    82	 1
   82    83	 1

[ angles ]
;	ai	  aj	ak funct			c0			  c1			c2			  c3
   31     1     2	5 ;     CG2R61      CG2O1      OG2D1
   31     1     3	5 ;     CG2R61      CG2O1      NG2S1
    2     1     3	5 ;      OG2D1      CG2O1      NG2S1
    1     3     4	5 ;      CG2O1      NG2S1       HGP1
    1     3     5	5 ;      CG2O1      NG2S1      CG311
    4     3     5	5 ;       HGP1      NG2S1      CG311
    3     5    13	5 ;      NG2S1      CG311      CG311
    3     5     6	5 ;      NG2S1      CG311      CG321
    3     5    54	5 ;      NG2S1      CG311       HGA1
   13     5     6	5 ;      CG311      CG311      CG321
   13     5    54	5 ;      CG311      CG311       HGA1
    6     5    54	5 ;      CG321      CG311       HGA1
    5     6     7	5 ;      CG311      CG321     CG2R61
    5     6    55	5 ;      CG311      CG321       HGA2
    5     6    56	5 ;      CG311      CG321       HGA2
    7     6    55	5 ;     CG2R61      CG321       HGA2
    7     6    56	5 ;     CG2R61      CG321       HGA2
   55     6    56	5 ;       HGA2      CG321       HGA2
    6     7     8	5 ;      CG321     CG2R61     CG2R61
    6     7    12	5 ;      CG321     CG2R61     CG2R61
    8     7    12	5 ;     CG2R61     CG2R61     CG2R61
    7     8     9	5 ;     CG2R61     CG2R61     CG2R61
    7     8    57	5 ;     CG2R61     CG2R61      HGR61
    9     8    57	5 ;     CG2R61     CG2R61      HGR61
    8     9    10	5 ;     CG2R61     CG2R61     CG2R61
    8     9    58	5 ;     CG2R61     CG2R61      HGR61
   10     9    58	5 ;     CG2R61     CG2R61      HGR61
    9    10    11	5 ;     CG2R61     CG2R61     CG2R61
    9    10    59	5 ;     CG2R61     CG2R61      HGR61
   11    10    59	5 ;     CG2R61     CG2R61      HGR61
   12    11    10	5 ;     CG2R61     CG2R61     CG2R61
   12    11    60	5 ;     CG2R61     CG2R61      HGR61
   10    11    60	5 ;     CG2R61     CG2R61      HGR61
    7    12    11	5 ;     CG2R61     CG2R61     CG2R61
    7    12    61	5 ;     CG2R61     CG2R61      HGR61
   11    12    61	5 ;     CG2R61     CG2R61      HGR61
    5    13    14	5 ;      CG311      CG311      CG324
    5    13    29	5 ;      CG311      CG311      OG311
    5    13    62	5 ;      CG311      CG311       HGA1
   14    13    29	5 ;      CG324      CG311      OG311
   14    13    62	5 ;      CG324      CG311       HGA1
   29    13    62	5 ;      OG311      CG311       HGA1
   15    14    13	5 ;      NG3P2      CG324      CG311
   15    14    63	5 ;      NG3P2      CG324       HGA2
   15    14    64	5 ;      NG3P2      CG324       HGA2
   13    14    63	5 ;      CG311      CG324       HGA2
   13    14    64	5 ;      CG311      CG324       HGA2
   63    14    64	5 ;       HGA2      CG324       HGA2
   16    15    18	5 ;       HGP2      NG3P2      CG324
   16    15    17	5 ;       HGP2      NG3P2       HGP2
   16    15    14	5 ;       HGP2      NG3P2      CG324
   18    15    17	5 ;      CG324      NG3P2       HGP2
   18    15    14	5 ;      CG324      NG3P2      CG324
   17    15    14	5 ;       HGP2      NG3P2      CG324
   19    18    15	5 ;     CG2R61      CG324      NG3P2
   19    18    65	5 ;     CG2R61      CG324       HGA2
   19    18    66	5 ;     CG2R61      CG324       HGA2
   15    18    65	5 ;      NG3P2      CG324       HGA2
   15    18    66	5 ;      NG3P2      CG324       HGA2
   65    18    66	5 ;       HGA2      CG324       HGA2
   24    19    20	5 ;     CG2R61     CG2R61     CG2R61
   24    19    18	5 ;     CG2R61     CG2R61      CG324
   20    19    18	5 ;     CG2R61     CG2R61      CG324
   21    20    19	5 ;     CG2R61     CG2R61     CG2R61
   21    20    67	5 ;     CG2R61     CG2R61      HGR61
   19    20    67	5 ;     CG2R61     CG2R61      HGR61
   22    21    25	5 ;     CG2R61     CG2R61      CG302
   22    21    20	5 ;     CG2R61     CG2R61     CG2R61
   25    21    20	5 ;      CG302     CG2R61     CG2R61
   23    22    21	5 ;     CG2R61     CG2R61     CG2R61
   23    22    68	5 ;     CG2R61     CG2R61      HGR61
   21    22    68	5 ;     CG2R61     CG2R61      HGR61
   22    23    24	5 ;     CG2R61     CG2R61     CG2R61
   22    23    69	5 ;     CG2R61     CG2R61      HGR61
   24    23    69	5 ;     CG2R61     CG2R61      HGR61
   23    24    19	5 ;     CG2R61     CG2R61     CG2R61
   23    24    70	5 ;     CG2R61     CG2R61      HGR61
   19    24    70	5 ;     CG2R61     CG2R61      HGR61
   28    25    21	5 ;       FGA3      CG302     CG2R61
   28    25    26	5 ;       FGA3      CG302       FGA3
   28    25    27	5 ;       FGA3      CG302       FGA3
   21    25    26	5 ;     CG2R61      CG302       FGA3
   21    25    27	5 ;     CG2R61      CG302       FGA3
   26    25    27	5 ;       FGA3      CG302       FGA3
   13    29    30	5 ;      CG311      OG311       HGP1
   36    31    32	5 ;     CG2R61     CG2R61     CG2R61
   36    31     1	5 ;     CG2R61     CG2R61      CG2O1
   32    31     1	5 ;     CG2R61     CG2R61      CG2O1
   33    32    31	5 ;     CG2R67     CG2R61     CG2R61
   33    32    71	5 ;     CG2R67     CG2R61      HGR61
   31    32    71	5 ;     CG2R61     CG2R61      HGR61
   34    33    37	5 ;     CG2R61     CG2R67     CG2R67
   34    33    32	5 ;     CG2R61     CG2R67     CG2R61
   37    33    32	5 ;     CG2R67     CG2R67     CG2R61
   35    34    33	5 ;     CG2R61     CG2R61     CG2R67
   35    34    72	5 ;     CG2R61     CG2R61      HGR61
   33    34    72	5 ;     CG2R67     CG2R61      HGR61
   43    35    34	5 ;      NG301     CG2R61     CG2R61
   43    35    36	5 ;      NG301     CG2R61     CG2R61
   34    35    36	5 ;     CG2R61     CG2R61     CG2R61
   35    36    31	5 ;     CG2R61     CG2R61     CG2R61
   35    36    73	5 ;     CG2R61     CG2R61      HGR61
   31    36    73	5 ;     CG2R61     CG2R61      HGR61
   33    37    42	5 ;     CG2R67     CG2R67     CG2R61
   33    37    38	5 ;     CG2R67     CG2R67     CG2R61
   42    37    38	5 ;     CG2R61     CG2R67     CG2R61
   37    38    39	5 ;     CG2R67     CG2R61     CG2R61
   37    38    74	5 ;     CG2R67     CG2R61      HGR61
   39    38    74	5 ;     CG2R61     CG2R61      HGR61
   38    39    40	5 ;     CG2R61     CG2R61     CG2R61
   38    39    75	5 ;     CG2R61     CG2R61      HGR61
   40    39    75	5 ;     CG2R61     CG2R61      HGR61
   41    40    39	5 ;     CG2R61     CG2R61     CG2R61
   41    40    76	5 ;     CG2R61     CG2R61      HGR61
   39    40    76	5 ;     CG2R61     CG2R61      HGR61
   42    41    40	5 ;     CG2R61     CG2R61     CG2R61
   42    41    77	5 ;     CG2R61     CG2R61      HGR61
   40    41    77	5 ;     CG2R61     CG2R61      HGR61
   37    42    41	5 ;     CG2R67     CG2R61     CG2R61
   37    42    78	5 ;     CG2R67     CG2R61      HGR61
   41    42    78	5 ;     CG2R61     CG2R61      HGR61
   44    43    48	5 ;      SG3O2      NG301     CG2R61
   44    43    35	5 ;      SG3O2      NG301     CG2R61
   48    43    35	5 ;     CG2R61      NG301     CG2R61
   47    44    46	5 ;      CG331      SG3O2      OG2P1
   47    44    45	5 ;      CG331      SG3O2      OG2P1
   47    44    43	5 ;      CG331      SG3O2      NG301
   46    44    45	5 ;      OG2P1      SG3O2      OG2P1
   46    44    43	5 ;      OG2P1      SG3O2      NG301
   45    44    43	5 ;      OG2P1      SG3O2      NG301
   44    47    84	5 ;      SG3O2      CG331       HGA3
   44    47    85	5 ;      SG3O2      CG331       HGA3
   44    47    86	5 ;      SG3O2      CG331       HGA3
   84    47    85	5 ;       HGA3      CG331       HGA3
   84    47    86	5 ;       HGA3      CG331       HGA3
   85    47    86	5 ;       HGA3      CG331       HGA3
   49    48    53	5 ;     CG2R61     CG2R61     CG2R61
   49    48    43	5 ;     CG2R61     CG2R61      NG301
   53    48    43	5 ;     CG2R61     CG2R61      NG301
   50    49    48	5 ;     CG2R61     CG2R61     CG2R61
   50    49    79	5 ;     CG2R61     CG2R61      HGR61
   48    49    79	5 ;     CG2R61     CG2R61      HGR61
   51    50    49	5 ;     CG2R61     CG2R61     CG2R61
   51    50    80	5 ;     CG2R61     CG2R61      HGR61
   49    50    80	5 ;     CG2R61     CG2R61      HGR61
   50    51    52	5 ;     CG2R61     CG2R61     CG2R61
   50    51    81	5 ;     CG2R61     CG2R61      HGR61
   52    51    81	5 ;     CG2R61     CG2R61      HGR61
   51    52    53	5 ;     CG2R61     CG2R61     CG2R61
   51    52    82	5 ;     CG2R61     CG2R61      HGR61
   53    52    82	5 ;     CG2R61     CG2R61      HGR61
   52    53    48	5 ;     CG2R61     CG2R61     CG2R61
   52    53    83	5 ;     CG2R61     CG2R61      HGR61
   48    53    83	5 ;     CG2R61     CG2R61      HGR61

[ dihedrals ]
;	ai	  aj	ak	  al funct			  c0			c1			  c2			c3			  c4			c5
    2     1    31    36	 9 ;      OG2D1      CG2O1     CG2R61     CG2R61
    2     1    31    32	 9 ;      OG2D1      CG2O1     CG2R61     CG2R61
    3     1    31    36	 9 ;      NG2S1      CG2O1     CG2R61     CG2R61
    3     1    31    32	 9 ;      NG2S1      CG2O1     CG2R61     CG2R61
   31     1     3     4	 9 ;     CG2R61      CG2O1      NG2S1       HGP1
   31     1     3     5	 9 ;     CG2R61      CG2O1      NG2S1      CG311
    2     1     3     4	 9 ;      OG2D1      CG2O1      NG2S1       HGP1
    2     1     3     5	 9 ;      OG2D1      CG2O1      NG2S1      CG311
    1     3     5    13	 9 ;      CG2O1      NG2S1      CG311      CG311
    1     3     5     6	 9 ;      CG2O1      NG2S1      CG311      CG321
    1     3     5    54	 9 ;      CG2O1      NG2S1      CG311       HGA1
    4     3     5    13	 9 ;       HGP1      NG2S1      CG311      CG311
    4     3     5     6	 9 ;       HGP1      NG2S1      CG311      CG321
    4     3     5    54	 9 ;       HGP1      NG2S1      CG311       HGA1
    3     5    13    14	 9 ;      NG2S1      CG311      CG311      CG324
    3     5    13    29	 9 ;      NG2S1      CG311      CG311      OG311
    3     5    13    62	 9 ;      NG2S1      CG311      CG311       HGA1
    6     5    13    14	 9 ;      CG321      CG311      CG311      CG324
    6     5    13    29	 9 ;      CG321      CG311      CG311      OG311
    6     5    13    62	 9 ;      CG321      CG311      CG311       HGA1
   54     5    13    14	 9 ;       HGA1      CG311      CG311      CG324
   54     5    13    29	 9 ;       HGA1      CG311      CG311      OG311
   54     5    13    62	 9 ;       HGA1      CG311      CG311       HGA1
    3     5     6     7	 9 ;      NG2S1      CG311      CG321     CG2R61
    3     5     6    55	 9 ;      NG2S1      CG311      CG321       HGA2
    3     5     6    56	 9 ;      NG2S1      CG311      CG321       HGA2
   13     5     6     7	 9 ;      CG311      CG311      CG321     CG2R61
   13     5     6    55	 9 ;      CG311      CG311      CG321       HGA2
   13     5     6    56	 9 ;      CG311      CG311      CG321       HGA2
   54     5     6     7	 9 ;       HGA1      CG311      CG321     CG2R61
   54     5     6    55	 9 ;       HGA1      CG311      CG321       HGA2
   54     5     6    56	 9 ;       HGA1      CG311      CG321       HGA2
    5     6     7     8	 9 ;      CG311      CG321     CG2R61     CG2R61
    5     6     7    12	 9 ;      CG311      CG321     CG2R61     CG2R61
   55     6     7     8	 9 ;       HGA2      CG321     CG2R61     CG2R61
   55     6     7    12	 9 ;       HGA2      CG321     CG2R61     CG2R61
   56     6     7     8	 9 ;       HGA2      CG321     CG2R61     CG2R61
   56     6     7    12	 9 ;       HGA2      CG321     CG2R61     CG2R61
    6     7     8     9	 9 ;      CG321     CG2R61     CG2R61     CG2R61
    6     7     8    57	 9 ;      CG321     CG2R61     CG2R61      HGR61
   12     7     8     9	 9 ;     CG2R61     CG2R61     CG2R61     CG2R61
   12     7     8    57	 9 ;     CG2R61     CG2R61     CG2R61      HGR61
    6     7    12    11	 9 ;      CG321     CG2R61     CG2R61     CG2R61
    6     7    12    61	 9 ;      CG321     CG2R61     CG2R61      HGR61
    8     7    12    11	 9 ;     CG2R61     CG2R61     CG2R61     CG2R61
    8     7    12    61	 9 ;     CG2R61     CG2R61     CG2R61      HGR61
    7     8     9    10	 9 ;     CG2R61     CG2R61     CG2R61     CG2R61
    7     8     9    58	 9 ;     CG2R61     CG2R61     CG2R61      HGR61
   57     8     9    10	 9 ;      HGR61     CG2R61     CG2R61     CG2R61
   57     8     9    58	 9 ;      HGR61     CG2R61     CG2R61      HGR61
    8     9    10    11	 9 ;     CG2R61     CG2R61     CG2R61     CG2R61
    8     9    10    59	 9 ;     CG2R61     CG2R61     CG2R61      HGR61
   58     9    10    11	 9 ;      HGR61     CG2R61     CG2R61     CG2R61
   58     9    10    59	 9 ;      HGR61     CG2R61     CG2R61      HGR61
    9    10    11    12	 9 ;     CG2R61     CG2R61     CG2R61     CG2R61
    9    10    11    60	 9 ;     CG2R61     CG2R61     CG2R61      HGR61
   59    10    11    12	 9 ;      HGR61     CG2R61     CG2R61     CG2R61
   59    10    11    60	 9 ;      HGR61     CG2R61     CG2R61      HGR61
   10    11    12     7	 9 ;     CG2R61     CG2R61     CG2R61     CG2R61
   10    11    12    61	 9 ;     CG2R61     CG2R61     CG2R61      HGR61
   60    11    12     7	 9 ;      HGR61     CG2R61     CG2R61     CG2R61
   60    11    12    61	 9 ;      HGR61     CG2R61     CG2R61      HGR61
    5    13    14    15	 9 ;      CG311      CG311      CG324      NG3P2
    5    13    14    63	 9 ;      CG311      CG311      CG324       HGA2
    5    13    14    64	 9 ;      CG311      CG311      CG324       HGA2
   29    13    14    15	 9 ;      OG311      CG311      CG324      NG3P2
   29    13    14    63	 9 ;      OG311      CG311      CG324       HGA2
   29    13    14    64	 9 ;      OG311      CG311      CG324       HGA2
   62    13    14    15	 9 ;       HGA1      CG311      CG324      NG3P2
   62    13    14    63	 9 ;       HGA1      CG311      CG324       HGA2
   62    13    14    64	 9 ;       HGA1      CG311      CG324       HGA2
    5    13    29    30	 9 ;      CG311      CG311      OG311       HGP1
   14    13    29    30	 9 ;      CG324      CG311      OG311       HGP1
   62    13    29    30	 9 ;       HGA1      CG311      OG311       HGP1
   13    14    15    16	 9 ;      CG311      CG324      NG3P2       HGP2
   13    14    15    18	 9 ;      CG311      CG324      NG3P2      CG324
   13    14    15    17	 9 ;      CG311      CG324      NG3P2       HGP2
   63    14    15    16	 9 ;       HGA2      CG324      NG3P2       HGP2
   63    14    15    18	 9 ;       HGA2      CG324      NG3P2      CG324
   63    14    15    17	 9 ;       HGA2      CG324      NG3P2       HGP2
   64    14    15    16	 9 ;       HGA2      CG324      NG3P2       HGP2
   64    14    15    18	 9 ;       HGA2      CG324      NG3P2      CG324
   64    14    15    17	 9 ;       HGA2      CG324      NG3P2       HGP2
   16    15    18    19	 9 ;       HGP2      NG3P2      CG324     CG2R61
   16    15    18    65	 9 ;       HGP2      NG3P2      CG324       HGA2
   16    15    18    66	 9 ;       HGP2      NG3P2      CG324       HGA2
   17    15    18    19	 9 ;       HGP2      NG3P2      CG324     CG2R61
   17    15    18    65	 9 ;       HGP2      NG3P2      CG324       HGA2
   17    15    18    66	 9 ;       HGP2      NG3P2      CG324       HGA2
   14    15    18    19	 9 ;      CG324      NG3P2      CG324     CG2R61
   14    15    18    65	 9 ;      CG324      NG3P2      CG324       HGA2
   14    15    18    66	 9 ;      CG324      NG3P2      CG324       HGA2
   15    18    19    24	 9 ;      NG3P2      CG324     CG2R61     CG2R61
   15    18    19    20	 9 ;      NG3P2      CG324     CG2R61     CG2R61
   65    18    19    24	 9 ;       HGA2      CG324     CG2R61     CG2R61
   65    18    19    20	 9 ;       HGA2      CG324     CG2R61     CG2R61
   66    18    19    24	 9 ;       HGA2      CG324     CG2R61     CG2R61
   66    18    19    20	 9 ;       HGA2      CG324     CG2R61     CG2R61
   20    19    24    23	 9 ;     CG2R61     CG2R61     CG2R61     CG2R61
   20    19    24    70	 9 ;     CG2R61     CG2R61     CG2R61      HGR61
   18    19    24    23	 9 ;      CG324     CG2R61     CG2R61     CG2R61
   18    19    24    70	 9 ;      CG324     CG2R61     CG2R61      HGR61
   24    19    20    21	 9 ;     CG2R61     CG2R61     CG2R61     CG2R61
   24    19    20    67	 9 ;     CG2R61     CG2R61     CG2R61      HGR61
   18    19    20    21	 9 ;      CG324     CG2R61     CG2R61     CG2R61
   18    19    20    67	 9 ;      CG324     CG2R61     CG2R61      HGR61
   19    20    21    22	 9 ;     CG2R61     CG2R61     CG2R61     CG2R61
   19    20    21    25	 9 ;     CG2R61     CG2R61     CG2R61      CG302
   67    20    21    22	 9 ;      HGR61     CG2R61     CG2R61     CG2R61
   67    20    21    25	 9 ;      HGR61     CG2R61     CG2R61      CG302
   25    21    22    23	 9 ;      CG302     CG2R61     CG2R61     CG2R61
   25    21    22    68	 9 ;      CG302     CG2R61     CG2R61      HGR61
   20    21    22    23	 9 ;     CG2R61     CG2R61     CG2R61     CG2R61
   20    21    22    68	 9 ;     CG2R61     CG2R61     CG2R61      HGR61
   22    21    25    28	 9 ;     CG2R61     CG2R61      CG302       FGA3
   22    21    25    26	 9 ;     CG2R61     CG2R61      CG302       FGA3
   22    21    25    27	 9 ;     CG2R61     CG2R61      CG302       FGA3
   20    21    25    28	 9 ;     CG2R61     CG2R61      CG302       FGA3
   20    21    25    26	 9 ;     CG2R61     CG2R61      CG302       FGA3
   20    21    25    27	 9 ;     CG2R61     CG2R61      CG302       FGA3
   21    22    23    24	 9 ;     CG2R61     CG2R61     CG2R61     CG2R61
   21    22    23    69	 9 ;     CG2R61     CG2R61     CG2R61      HGR61
   68    22    23    24	 9 ;      HGR61     CG2R61     CG2R61     CG2R61
   68    22    23    69	 9 ;      HGR61     CG2R61     CG2R61      HGR61
   22    23    24    19	 9 ;     CG2R61     CG2R61     CG2R61     CG2R61
   22    23    24    70	 9 ;     CG2R61     CG2R61     CG2R61      HGR61
   69    23    24    19	 9 ;      HGR61     CG2R61     CG2R61     CG2R61
   69    23    24    70	 9 ;      HGR61     CG2R61     CG2R61      HGR61
   32    31    36    35	 9 ;     CG2R61     CG2R61     CG2R61     CG2R61
   32    31    36    73	 9 ;     CG2R61     CG2R61     CG2R61      HGR61
    1    31    36    35	 9 ;      CG2O1     CG2R61     CG2R61     CG2R61
    1    31    36    73	 9 ;      CG2O1     CG2R61     CG2R61      HGR61
   36    31    32    33	 9 ;     CG2R61     CG2R61     CG2R61     CG2R67
   36    31    32    71	 9 ;     CG2R61     CG2R61     CG2R61      HGR61
    1    31    32    33	 9 ;      CG2O1     CG2R61     CG2R61     CG2R67
    1    31    32    71	 9 ;      CG2O1     CG2R61     CG2R61      HGR61
   31    32    33    34	 9 ;     CG2R61     CG2R61     CG2R67     CG2R61
   31    32    33    37	 9 ;     CG2R61     CG2R61     CG2R67     CG2R67
   71    32    33    34	 9 ;      HGR61     CG2R61     CG2R67     CG2R61
   71    32    33    37	 9 ;      HGR61     CG2R61     CG2R67     CG2R67
   37    33    34    35	 9 ;     CG2R67     CG2R67     CG2R61     CG2R61
   37    33    34    72	 9 ;     CG2R67     CG2R67     CG2R61      HGR61
   32    33    34    35	 9 ;     CG2R61     CG2R67     CG2R61     CG2R61
   32    33    34    72	 9 ;     CG2R61     CG2R67     CG2R61      HGR61
   34    33    37    42	 9 ;     CG2R61     CG2R67     CG2R67     CG2R61
   34    33    37    38	 9 ;     CG2R61     CG2R67     CG2R67     CG2R61
   32    33    37    42	 9 ;     CG2R61     CG2R67     CG2R67     CG2R61
   32    33    37    38	 9 ;     CG2R61     CG2R67     CG2R67     CG2R61
   33    34    35    43	 9 ;     CG2R67     CG2R61     CG2R61      NG301
   33    34    35    36	 9 ;     CG2R67     CG2R61     CG2R61     CG2R61
   72    34    35    43	 9 ;      HGR61     CG2R61     CG2R61      NG301
   72    34    35    36	 9 ;      HGR61     CG2R61     CG2R61     CG2R61
   34    35    43    44	 9 ;     CG2R61     CG2R61      NG301      SG3O2
   34    35    43    48	 9 ;     CG2R61     CG2R61      NG301     CG2R61
   36    35    43    44	 9 ;     CG2R61     CG2R61      NG301      SG3O2
   36    35    43    48	 9 ;     CG2R61     CG2R61      NG301     CG2R61
   43    35    36    31	 9 ;      NG301     CG2R61     CG2R61     CG2R61
   43    35    36    73	 9 ;      NG301     CG2R61     CG2R61      HGR61
   34    35    36    31	 9 ;     CG2R61     CG2R61     CG2R61     CG2R61
   34    35    36    73	 9 ;     CG2R61     CG2R61     CG2R61      HGR61
   33    37    42    41	 9 ;     CG2R67     CG2R67     CG2R61     CG2R61
   33    37    42    78	 9 ;     CG2R67     CG2R67     CG2R61      HGR61
   38    37    42    41	 9 ;     CG2R61     CG2R67     CG2R61     CG2R61
   38    37    42    78	 9 ;     CG2R61     CG2R67     CG2R61      HGR61
   33    37    38    39	 9 ;     CG2R67     CG2R67     CG2R61     CG2R61
   33    37    38    74	 9 ;     CG2R67     CG2R67     CG2R61      HGR61
   42    37    38    39	 9 ;     CG2R61     CG2R67     CG2R61     CG2R61
   42    37    38    74	 9 ;     CG2R61     CG2R67     CG2R61      HGR61
   37    38    39    40	 9 ;     CG2R67     CG2R61     CG2R61     CG2R61
   37    38    39    75	 9 ;     CG2R67     CG2R61     CG2R61      HGR61
   74    38    39    40	 9 ;      HGR61     CG2R61     CG2R61     CG2R61
   74    38    39    75	 9 ;      HGR61     CG2R61     CG2R61      HGR61
   38    39    40    41	 9 ;     CG2R61     CG2R61     CG2R61     CG2R61
   38    39    40    76	 9 ;     CG2R61     CG2R61     CG2R61      HGR61
   75    39    40    41	 9 ;      HGR61     CG2R61     CG2R61     CG2R61
   75    39    40    76	 9 ;      HGR61     CG2R61     CG2R61      HGR61
   39    40    41    42	 9 ;     CG2R61     CG2R61     CG2R61     CG2R61
   39    40    41    77	 9 ;     CG2R61     CG2R61     CG2R61      HGR61
   76    40    41    42	 9 ;      HGR61     CG2R61     CG2R61     CG2R61
   76    40    41    77	 9 ;      HGR61     CG2R61     CG2R61      HGR61
   40    41    42    37	 9 ;     CG2R61     CG2R61     CG2R61     CG2R67
   40    41    42    78	 9 ;     CG2R61     CG2R61     CG2R61      HGR61
   77    41    42    37	 9 ;      HGR61     CG2R61     CG2R61     CG2R67
   77    41    42    78	 9 ;      HGR61     CG2R61     CG2R61      HGR61
   48    43    44    47	 9 ;     CG2R61      NG301      SG3O2      CG331
   48    43    44    46	 9 ;     CG2R61      NG301      SG3O2      OG2P1
   48    43    44    45	 9 ;     CG2R61      NG301      SG3O2      OG2P1
   35    43    44    47	 9 ;     CG2R61      NG301      SG3O2      CG331
   35    43    44    46	 9 ;     CG2R61      NG301      SG3O2      OG2P1
   35    43    44    45	 9 ;     CG2R61      NG301      SG3O2      OG2P1
   44    43    48    49	 9 ;      SG3O2      NG301     CG2R61     CG2R61
   44    43    48    53	 9 ;      SG3O2      NG301     CG2R61     CG2R61
   35    43    48    49	 9 ;     CG2R61      NG301     CG2R61     CG2R61
   35    43    48    53	 9 ;     CG2R61      NG301     CG2R61     CG2R61
   46    44    47    84	 9 ;      OG2P1      SG3O2      CG331       HGA3
   46    44    47    85	 9 ;      OG2P1      SG3O2      CG331       HGA3
   46    44    47    86	 9 ;      OG2P1      SG3O2      CG331       HGA3
   45    44    47    84	 9 ;      OG2P1      SG3O2      CG331       HGA3
   45    44    47    85	 9 ;      OG2P1      SG3O2      CG331       HGA3
   45    44    47    86	 9 ;      OG2P1      SG3O2      CG331       HGA3
   43    44    47    84	 9 ;      NG301      SG3O2      CG331       HGA3
   43    44    47    85	 9 ;      NG301      SG3O2      CG331       HGA3
   43    44    47    86	 9 ;      NG301      SG3O2      CG331       HGA3
   53    48    49    50	 9 ;     CG2R61     CG2R61     CG2R61     CG2R61
   53    48    49    79	 9 ;     CG2R61     CG2R61     CG2R61      HGR61
   43    48    49    50	 9 ;      NG301     CG2R61     CG2R61     CG2R61
   43    48    49    79	 9 ;      NG301     CG2R61     CG2R61      HGR61
   49    48    53    52	 9 ;     CG2R61     CG2R61     CG2R61     CG2R61
   49    48    53    83	 9 ;     CG2R61     CG2R61     CG2R61      HGR61
   43    48    53    52	 9 ;      NG301     CG2R61     CG2R61     CG2R61
   43    48    53    83	 9 ;      NG301     CG2R61     CG2R61      HGR61
   48    49    50    51	 9 ;     CG2R61     CG2R61     CG2R61     CG2R61
   48    49    50    80	 9 ;     CG2R61     CG2R61     CG2R61      HGR61
   79    49    50    51	 9 ;      HGR61     CG2R61     CG2R61     CG2R61
   79    49    50    80	 9 ;      HGR61     CG2R61     CG2R61      HGR61
   49    50    51    52	 9 ;     CG2R61     CG2R61     CG2R61     CG2R61
   49    50    51    81	 9 ;     CG2R61     CG2R61     CG2R61      HGR61
   80    50    51    52	 9 ;      HGR61     CG2R61     CG2R61     CG2R61
   80    50    51    81	 9 ;      HGR61     CG2R61     CG2R61      HGR61
   50    51    52    53	 9 ;     CG2R61     CG2R61     CG2R61     CG2R61
   50    51    52    82	 9 ;     CG2R61     CG2R61     CG2R61      HGR61
   81    51    52    53	 9 ;      HGR61     CG2R61     CG2R61     CG2R61
   81    51    52    82	 9 ;      HGR61     CG2R61     CG2R61      HGR61
   51    52    53    48	 9 ;     CG2R61     CG2R61     CG2R61     CG2R61
   51    52    53    83	 9 ;     CG2R61     CG2R61     CG2R61      HGR61
   82    52    53    48	 9 ;      HGR61     CG2R61     CG2R61     CG2R61
   82    52    53    83	 9 ;      HGR61     CG2R61     CG2R61      HGR61

[ dihedrals ]
;	ai	  aj	ak	  al funct			  c0			c1			  c2			c3
    1    31     3     2	 2

