GRoups of Organic Molecules in ACtion for Science
   86
    1LIG     C1    1  -1.564   0.403  -1.683
    1LIG     O1    2  -1.592   0.505  -1.745
    1LIG     N1    3  -1.620   0.371  -1.560
    1LIG     H1    4  -1.580   0.292  -1.511
    1LIG     C2    5  -1.713   0.452  -1.479
    1LIG     C3    6  -1.833   0.367  -1.426
    1LIG     C4    7  -1.962   0.427  -1.375
    1LIG     C5    8  -2.042   0.520  -1.442
    1LIG     C6    9  -2.157   0.572  -1.383
    1LIG     C7   10  -2.195   0.533  -1.255
    1LIG     C8   11  -2.118   0.440  -1.186
    1LIG     C9   12  -2.002   0.388  -1.245
    1LIG    C10   13  -1.648   0.549  -1.377
    1LIG    C11   14  -1.694   0.694  -1.403
    1LIG     N2   15  -1.637   0.746  -1.532
    1LIG     H2   16  -1.623   0.668  -1.596
    1LIG     H3   17  -1.708   0.807  -1.575
    1LIG    C12   18  -1.508   0.821  -1.520
    1LIG    C13   19  -1.400   0.753  -1.600
    1LIG    C14   20  -1.328   0.645  -1.545
    1LIG    C15   21  -1.233   0.575  -1.621
    1LIG    C16   22  -1.208   0.615  -1.753
    1LIG    C17   23  -1.278   0.722  -1.808
    1LIG    C18   24  -1.374   0.790  -1.733
    1LIG    C19   25  -1.161   0.454  -1.563
    1LIG     F1   26  -1.062   0.489  -1.477
    1LIG     F2   27  -1.245   0.373  -1.493
    1LIG     F3   28  -1.104   0.377  -1.659
    1LIG     O2   29  -1.688   0.523  -1.241
    1LIG     H4   30  -1.703   0.426  -1.232
    1LIG    C20   31  -1.466   0.305  -1.737
    1LIG    C21   32  -1.437   0.189  -1.664
    1LIG    C22   33  -1.329   0.107  -1.698
    1LIG    C23   34  -1.259   0.137  -1.816
    1LIG    C24   35  -1.296   0.246  -1.896
    1LIG    C25   36  -1.398   0.332  -1.856
    1LIG    C26   37  -1.283   0.002  -1.605
    1LIG    C27   38  -1.373  -0.097  -1.562
    1LIG    C28   39  -1.331  -0.205  -1.485
    1LIG    C29   40  -1.197  -0.217  -1.449
    1LIG    C30   41  -1.106  -0.119  -1.490
    1LIG    C31   42  -1.149  -0.010  -1.566
    1LIG     N3   43  -1.225   0.264  -2.019
    1LIG      S   44  -1.206   0.133  -2.125
    1LIG     O3   45  -1.333   0.065  -2.141
    1LIG     O4   46  -1.087   0.059  -2.088
    1LIG    C32   47  -1.173   0.218  -2.278
    1LIG    C33   48  -1.137   0.376  -2.028
    1LIG    C34   49  -1.179   0.490  -2.098
    1LIG    C35   50  -1.098   0.603  -2.103
    1LIG    C36   51  -0.975   0.604  -2.038
    1LIG    C37   52  -0.932   0.491  -1.969
    1LIG    C38   53  -1.012   0.376  -1.965
    1LIG     HC   54  -1.759   0.518  -1.552
    1LIG    HC2   55  -1.862   0.302  -1.509
    1LIG    HC3   56  -1.794   0.303  -1.347
    1LIG    HC1   57  -2.014   0.551  -1.542
    1LIG    HC4   58  -2.216   0.645  -1.436
    1LIG    HC5   59  -2.285   0.573  -1.209
    1LIG    HC6   60  -2.146   0.409  -1.086
    1LIG    HC7   61  -1.943   0.316  -1.190
    1LIG    HC8   62  -1.540   0.543  -1.385
    1LIG    HC9   63  -1.661   0.758  -1.321
    1LIG   HC10   64  -1.803   0.697  -1.409
    1LIG   HC11   65  -1.478   0.825  -1.416
    1LIG   HC12   66  -1.522   0.922  -1.558
    1LIG   HC13   67  -1.346   0.617  -1.442
    1LIG   HC14   68  -1.135   0.562  -1.812
    1LIG   HC15   69  -1.257   0.753  -1.910
    1LIG   HC16   70  -1.430   0.871  -1.778
    1LIG   HC17   71  -1.499   0.162  -1.580
    1LIG   HC18   72  -1.176   0.075  -1.846
    1LIG   HC19   73  -1.425   0.417  -1.916
    1LIG   HC20   74  -1.478  -0.090  -1.589
    1LIG   HC21   75  -1.401  -0.280  -1.452
    1LIG   HC22   76  -1.163  -0.301  -1.391
    1LIG   HC23   77  -1.002  -0.127  -1.462
    1LIG   HC24   78  -1.078   0.065  -1.595
    1LIG   HC25   79  -1.275   0.490  -2.147
    1LIG   HC26   80  -1.131   0.691  -2.158
    1LIG   HC27   81  -0.913   0.692  -2.040
    1LIG   HC28   82  -0.836   0.491  -1.919
    1LIG   HC29   83  -0.978   0.288  -1.913
    1LIG   HC30   84  -1.166   0.146  -2.359
    1LIG   HC31   85  -1.254   0.288  -2.299
    1LIG   HC32   86  -1.079   0.273  -2.270
   0.00000   0.00000   0.00000
