Green Red Orange Magenta Azure Cyan Skyblue
   48
    1LIG     O1    1  -1.687   0.329  -1.620
    1LIG     C1    2  -1.632   0.432  -1.536
    1LIG     C2    3  -1.511   0.488  -1.615
    1LIG     N1    4  -1.514   0.412  -1.743
    1LIG    HN1    5  -1.451   0.423  -1.823
    1LIG     C3    6  -1.611   0.329  -1.731
    1LIG     N2    7  -1.649   0.238  -1.822
    1LIG     C4    8  -1.380   0.459  -1.542
    1LIG     C5    9  -1.341   0.327  -1.511
    1LIG     C6   10  -1.219   0.298  -1.447
    1LIG     C7   11  -1.137   0.406  -1.413
    1LIG     C8   12  -1.175   0.537  -1.441
    1LIG     C9   13  -1.295   0.564  -1.506
    1LIG     O2   14  -1.322   0.696  -1.530
    1LIG    C10   15  -1.435   0.729  -1.601
    1LIG    C11   16  -1.529   0.636  -1.644
    1LIG    C12   17  -1.640   0.681  -1.717
    1LIG    C13   18  -1.658   0.817  -1.745
    1LIG    C14   19  -1.562   0.908  -1.701
    1LIG    C15   20  -1.451   0.864  -1.629
    1LIG     H1   21  -1.740   0.196  -1.813
    1LIG     H2   22  -1.612   0.250  -1.916
    1LIG    C16   23  -1.180   0.158  -1.418
    1LIG    C17   24  -1.231   0.089  -1.307
    1LIG    C18   25  -1.191  -0.042  -1.283
    1LIG     N3   26  -1.105  -0.109  -1.362
    1LIG    C19   27  -1.057  -0.043  -1.469
    1LIG    HN2   28  -1.077  -0.205  -1.341
    1LIG    C20   29  -1.090   0.088  -1.500
    1LIG     O3   30  -1.763   0.871  -1.814
    1LIG    C21   31  -1.809   0.998  -1.768
    1LIG    HC2   32  -1.599   0.390  -1.441
    1LIG    HC3   33  -1.706   0.510  -1.520
    1LIG     HC   34  -1.407   0.246  -1.538
    1LIG    HC1   35  -1.042   0.387  -1.365
    1LIG    HC4   36  -1.110   0.619  -1.413
    1LIG    HC5   37  -1.714   0.610  -1.752
    1LIG    HC6   38  -1.574   1.013  -1.722
    1LIG    HC7   39  -1.377   0.935  -1.595
    1LIG    HC8   40  -1.300   0.138  -1.240
    1LIG    HC9   41  -1.231  -0.093  -1.197
    1LIG   HC10   42  -0.988  -0.095  -1.534
    1LIG   HC11   43  -1.047   0.136  -1.587
    1LIG   HC12   44  -1.910   1.016  -1.806
    1LIG   HC13   45  -1.742   1.076  -1.805
    1LIG   HC14   46  -1.810   0.999  -1.659
    1LIG    H20   47  -1.544   0.256  -1.686
    1LIG    H21   48  -1.274  -0.078  -1.343
   0.00000   0.00000   0.00000
