Gromacs Runs One Microsecond At Cannonball Speeds
   70
    1LIG     C1    1  -1.657   0.738  -1.599
    1LIG     C2    2  -1.562   0.863  -1.611
    1LIG     C3    3  -1.475   0.866  -1.738
    1LIG     C4    4  -1.413   0.731  -1.785
    1LIG     C5    5  -1.282   0.689  -1.723
    1LIG     C6    6  -1.174   0.650  -1.803
    1LIG     C7    7  -1.054   0.607  -1.746
    1LIG     F1    8  -0.955   0.566  -1.825
    1LIG     C8    9  -1.038   0.604  -1.608
    1LIG     C9   10  -1.142   0.648  -1.528
    1LIG    C10   11  -1.262   0.693  -1.584
    1LIG     F2   12  -1.128   0.647  -1.395
    1LIG     N1   13  -1.555   0.922  -1.847
    1LIG    C11   14  -1.521   1.043  -1.905
    1LIG     O1   15  -1.424   1.108  -1.872
    1LIG    C12   16  -1.623   1.088  -2.006
    1LIG     H1   17  -1.614   0.861  -1.902
    1LIG     O2   18  -1.640   0.982  -1.594
    1LIG     H2   19  -1.580   1.057  -1.573
    1LIG     N2   20  -1.605   0.612  -1.536
    1LIG     H3   21  -1.503   0.623  -1.545
    1LIG     H4   22  -1.622   0.621  -1.435
    1LIG    C13   23  -1.621   0.464  -1.578
    1LIG    C14   24  -1.689   0.452  -1.715
    1LIG    C15   25  -1.772   0.324  -1.713
    1LIG    C16   26  -1.784   0.280  -1.568
    1LIG    C17   27  -1.713   0.386  -1.483
    1LIG    C18   28  -1.481   0.398  -1.570
    1LIG    C19   29  -1.424   0.376  -1.442
    1LIG    C20   30  -1.296   0.321  -1.422
    1LIG    C21   31  -1.226   0.283  -1.536
    1LIG    C22   32  -1.280   0.300  -1.664
    1LIG    C23   33  -1.406   0.357  -1.681
    1LIG    C24   34  -1.241   0.297  -1.280
    1LIG    C25   35  -1.098   0.240  -1.294
    1LIG    C26   36  -1.235   0.427  -1.196
    1LIG    C27   37  -1.325   0.196  -1.198
    1LIG    HC2   38  -1.744   0.770  -1.542
    1LIG    HC3   39  -1.691   0.714  -1.700
    1LIG     HC   40  -1.494   0.859  -1.526
    1LIG    HC1   41  -1.392   0.934  -1.720
    1LIG    HC4   42  -1.485   0.652  -1.763
    1LIG    HC5   43  -1.399   0.735  -1.893
    1LIG    HC6   44  -1.184   0.652  -1.911
    1LIG    HC7   45  -0.946   0.567  -1.564
    1LIG    HC8   46  -1.341   0.729  -1.519
    1LIG    HC9   47  -1.614   0.447  -1.794
    1LIG   HC10   48  -1.754   0.538  -1.732
    1LIG   HC11   49  -1.723   0.246  -1.771
    1LIG   HC12   50  -1.872   0.343  -1.754
    1LIG   HC13   51  -1.889   0.274  -1.539
    1LIG   HC14   52  -1.736   0.184  -1.554
    1LIG   HC15   53  -1.786   0.452  -1.437
    1LIG   HC16   54  -1.654   0.337  -1.405
    1LIG   HC17   55  -1.482   0.403  -1.355
    1LIG   HC18   56  -1.127   0.239  -1.526
    1LIG   HC19   57  -1.224   0.268  -1.750
    1LIG   HC20   58  -1.446   0.370  -1.780
    1LIG   HC21   59  -1.592   1.183  -2.049
    1LIG   HC22   60  -1.720   1.101  -1.956
    1LIG   HC23   61  -1.633   1.014  -2.085
    1LIG   HC24   62  -1.054   0.226  -1.195
    1LIG   HC25   63  -1.102   0.144  -1.346
    1LIG   HC26   64  -1.037   0.310  -1.351
    1LIG   HC27   65  -1.332   0.102  -1.253
    1LIG   HC28   66  -1.277   0.179  -1.102
    1LIG   HC29   67  -1.425   0.237  -1.183
    1LIG   HC30   68  -1.177   0.502  -1.250
    1LIG   HC31   69  -1.189   0.406  -1.100
    1LIG   HC32   70  -1.337   0.464  -1.181
   0.00000   0.00000   0.00000
