; Created by cgenff_charmm2gmx.py

[ moleculetype ]
; Name			   nrexcl
LIG				 3

[ atoms ]
;	 nr		  type	resnr residue  atom   cgnr	   charge		mass  typeB    chargeB		massB
; residue	 1 LIG rtp LIG q	qsum
     1      CG324      1    LIG     C1      1      0.261     12.011   ;
     2      CG311      1    LIG     C2      2      0.095     12.011   ;
     3      CG311      1    LIG     C3      3     -0.007     12.011   ;
     4      CG321      1    LIG     C4      4     -0.153     12.011   ;
     5     CG2R61      1    LIG     C5      5      0.057     12.011   ;
     6     CG2R61      1    LIG     C6      6     -0.218     12.011   ;
     7     CG2R66      1    LIG     C7      7      0.261     12.011   ;
     8       FGR1      1    LIG     F1      8     -0.210     18.998   ;
     9     CG2R61      1    LIG     C8      9     -0.240     12.011   ;
    10     CG2R66      1    LIG     C9     10      0.261     12.011   ;
    11     CG2R61      1    LIG    C10     11     -0.218     12.011   ;
    12       FGR1      1    LIG     F2     12     -0.210     18.998   ;
    13      NG2S1      1    LIG     N1     13     -0.339     14.007   ;
    14      CG2O1      1    LIG    C11     14      0.488     12.011   ;
    15      OG2D1      1    LIG     O1     15     -0.509     15.999   ;
    16      CG331      1    LIG    C12     16     -0.270     12.011   ;
    17       HGP1      1    LIG     H1     17      0.261      1.008   ;
    18      OG311      1    LIG     O2     18     -0.625     15.999   ;
    19       HGP1      1    LIG     H2     19      0.415      1.008   ;
    20      NG3P2      1    LIG     N2     20     -0.753     14.007   ;
    21       HGP2      1    LIG     H3     21      0.351      1.008   ;
    22       HGP2      1    LIG     H4     22      0.351      1.008   ;
    23     CG3C50      1    LIG    C13     23      0.866     12.011   ;
    24     CG3C52      1    LIG    C14     24     -0.241     12.011   ;
    25     CG3C52      1    LIG    C15     25     -0.099     12.011   ;
    26     CG3C52      1    LIG    C16     26     -0.099     12.011   ;
    27     CG3C52      1    LIG    C17     27     -0.241     12.011   ;
    28     CG2R61      1    LIG    C18     28     -0.290     12.011   ;
    29     CG2R61      1    LIG    C19     29     -0.135     12.011   ;
    30     CG2R61      1    LIG    C20     30      0.090     12.011   ;
    31     CG2R61      1    LIG    C21     31     -0.121     12.011   ;
    32     CG2R61      1    LIG    C22     32     -0.102     12.011   ;
    33     CG2R61      1    LIG    C23     33     -0.130     12.011   ;
    34      CG301      1    LIG    C24     34     -0.018     12.011   ;
    35      CG331      1    LIG    C25     35     -0.289     12.011   ;
    36      CG331      1    LIG    C26     36     -0.289     12.011   ;
    37      CG331      1    LIG    C27     37     -0.289     12.011   ;
    38       HGA2      1    LIG    HC2     38      0.090      1.008   ;
    39       HGA2      1    LIG    HC3     39      0.090      1.008   ;
    40       HGA1      1    LIG     HC     40      0.090      1.008   ;
    41       HGA1      1    LIG    HC1     41      0.090      1.008   ;
    42       HGA2      1    LIG    HC4     42      0.090      1.008   ;
    43       HGA2      1    LIG    HC5     43      0.090      1.008   ;
    44      HGR62      1    LIG    HC6     44      0.174      1.008   ;
    45      HGR62      1    LIG    HC7     45      0.186      1.008   ;
    46      HGR62      1    LIG    HC8     46      0.174      1.008   ;
    47       HGA2      1    LIG    HC9     47      0.090      1.008   ;
    48       HGA2      1    LIG   HC10     48      0.090      1.008   ;
    49       HGA2      1    LIG   HC11     49      0.090      1.008   ;
    50       HGA2      1    LIG   HC12     50      0.090      1.008   ;
    51       HGA2      1    LIG   HC13     51      0.090      1.008   ;
    52       HGA2      1    LIG   HC14     52      0.090      1.008   ;
    53       HGA2      1    LIG   HC15     53      0.090      1.008   ;
    54       HGA2      1    LIG   HC16     54      0.090      1.008   ;
    55      HGR61      1    LIG   HC17     55      0.116      1.008   ;
    56      HGR61      1    LIG   HC18     56      0.116      1.008   ;
    57      HGR61      1    LIG   HC19     57      0.116      1.008   ;
    58      HGR61      1    LIG   HC20     58      0.116      1.008   ;
    59       HGA3      1    LIG   HC21     59      0.090      1.008   ;
    60       HGA3      1    LIG   HC22     60      0.090      1.008   ;
    61       HGA3      1    LIG   HC23     61      0.090      1.008   ;
    62       HGA3      1    LIG   HC24     62      0.090      1.008   ;
    63       HGA3      1    LIG   HC25     63      0.090      1.008   ;
    64       HGA3      1    LIG   HC26     64      0.090      1.008   ;
    65       HGA3      1    LIG   HC27     65      0.090      1.008   ;
    66       HGA3      1    LIG   HC28     66      0.090      1.008   ;
    67       HGA3      1    LIG   HC29     67      0.090      1.008   ;
    68       HGA3      1    LIG   HC30     68      0.090      1.008   ;
    69       HGA3      1    LIG   HC31     69      0.090      1.008   ;
    70       HGA3      1    LIG   HC32     70      0.090      1.008   ;

[ bonds ]
;	ai	  aj funct			  c0			c1			  c2			c3
    1     2	 1 ;       CG324      CG311
    1    20	 1 ;       CG324      NG3P2
    1    38	 1 ;       CG324       HGA2
    1    39	 1 ;       CG324       HGA2
    2     3	 1 ;       CG311      CG311
    2    18	 1 ;       CG311      OG311
    2    40	 1 ;       CG311       HGA1
    3     4	 1 ;       CG311      CG321
    3    13	 1 ;       CG311      NG2S1
    3    41	 1 ;       CG311       HGA1
    4     5	 1 ;       CG321     CG2R61
    4    42	 1 ;       CG321       HGA2
    4    43	 1 ;       CG321       HGA2
    5     6	 1 ;      CG2R61     CG2R61
    5    11	 1 ;      CG2R61     CG2R61
    6     7	 1 ;      CG2R61     CG2R66
    6    44	 1 ;      CG2R61      HGR62
    7     8	 1 ;      CG2R66       FGR1
    7     9	 1 ;      CG2R66     CG2R61
    9    10	 1 ;      CG2R61     CG2R66
    9    45	 1 ;      CG2R61      HGR62
   10    11	 1 ;      CG2R66     CG2R61
   10    12	 1 ;      CG2R66       FGR1
   11    46	 1 ;      CG2R61      HGR62
   13    14	 1 ;       NG2S1      CG2O1
   13    17	 1 ;       NG2S1       HGP1
   14    15	 1 ;       CG2O1      OG2D1
   14    16	 1 ;       CG2O1      CG331
   16    59	 1 ;       CG331       HGA3
   16    60	 1 ;       CG331       HGA3
   16    61	 1 ;       CG331       HGA3
   18    19	 1 ;       OG311       HGP1
   20    21	 1 ;       NG3P2       HGP2
   20    23	 1 ;       NG3P2     CG3C50
   20    22	 1 ;       NG3P2       HGP2
   23    28	 1 ;      CG3C50     CG2R61
   23    24	 1 ;      CG3C50     CG3C52
   23    27	 1 ;      CG3C50     CG3C52
   24    25	 1 ;      CG3C52     CG3C52
   24    47	 1 ;      CG3C52       HGA2
   24    48	 1 ;      CG3C52       HGA2
   25    26	 1 ;      CG3C52     CG3C52
   25    49	 1 ;      CG3C52       HGA2
   25    50	 1 ;      CG3C52       HGA2
   26    27	 1 ;      CG3C52     CG3C52
   26    51	 1 ;      CG3C52       HGA2
   26    52	 1 ;      CG3C52       HGA2
   27    53	 1 ;      CG3C52       HGA2
   27    54	 1 ;      CG3C52       HGA2
   28    33	 1 ;      CG2R61     CG2R61
   28    29	 1 ;      CG2R61     CG2R61
   29    30	 1 ;      CG2R61     CG2R61
   29    55	 1 ;      CG2R61      HGR61
   30    31	 1 ;      CG2R61     CG2R61
   30    34	 1 ;      CG2R61      CG301
   31    32	 1 ;      CG2R61     CG2R61
   31    56	 1 ;      CG2R61      HGR61
   32    33	 1 ;      CG2R61     CG2R61
   32    57	 1 ;      CG2R61      HGR61
   33    58	 1 ;      CG2R61      HGR61
   34    35	 1 ;       CG301      CG331
   34    36	 1 ;       CG301      CG331
   34    37	 1 ;       CG301      CG331
   35    62	 1 ;       CG331       HGA3
   35    63	 1 ;       CG331       HGA3
   35    64	 1 ;       CG331       HGA3
   36    68	 1 ;       CG331       HGA3
   36    69	 1 ;       CG331       HGA3
   36    70	 1 ;       CG331       HGA3
   37    65	 1 ;       CG331       HGA3
   37    66	 1 ;       CG331       HGA3
   37    67	 1 ;       CG331       HGA3

[ pairs ]
;	ai	  aj funct			  c0			c1			  c2			c3
    1     4	 1
    1    13	 1
    1    41	 1
    1    19	 1
    1    28	 1
    1    24	 1
    1    27	 1
    2    21	 1
    2    23	 1
    2    22	 1
    2     5	 1
    2    42	 1
    2    43	 1
    2    14	 1
    2    17	 1
    3    20	 1
    3    38	 1
    3    39	 1
    3    19	 1
    3     6	 1
    3    11	 1
    3    15	 1
    3    16	 1
    4    18	 1
    4    40	 1
    4    14	 1
    4    17	 1
    4     7	 1
    4    44	 1
    4    10	 1
    4    46	 1
    5    13	 1
    5    41	 1
    5     8	 1
    5     9	 1
    5    12	 1
    6    42	 1
    6    43	 1
    6    10	 1
    6    46	 1
    6    45	 1
    7    11	 1
    7    12	 1
    8    44	 1
    8    10	 1
    8    45	 1
    9    44	 1
    9    46	 1
   11    42	 1
   11    43	 1
   11    44	 1
   11    45	 1
   12    45	 1
   12    46	 1
   13    18	 1
   13    40	 1
   13    42	 1
   13    43	 1
   13    59	 1
   13    60	 1
   13    61	 1
   14    41	 1
   15    17	 1
   15    59	 1
   15    60	 1
   15    61	 1
   16    17	 1
   17    41	 1
   18    20	 1
   18    38	 1
   18    39	 1
   18    41	 1
   19    40	 1
   20    40	 1
   20    33	 1
   20    29	 1
   20    25	 1
   20    47	 1
   20    48	 1
   20    26	 1
   20    53	 1
   20    54	 1
   21    38	 1
   21    39	 1
   21    28	 1
   21    24	 1
   21    27	 1
   22    38	 1
   22    39	 1
   22    28	 1
   22    24	 1
   22    27	 1
   23    38	 1
   23    39	 1
   23    49	 1
   23    50	 1
   23    51	 1
   23    52	 1
   23    32	 1
   23    58	 1
   23    30	 1
   23    55	 1
   24    33	 1
   24    29	 1
   24    53	 1
   24    54	 1
   24    51	 1
   24    52	 1
   25    28	 1
   25    53	 1
   25    54	 1
   26    28	 1
   26    47	 1
   26    48	 1
   27    33	 1
   27    29	 1
   27    47	 1
   27    48	 1
   27    49	 1
   27    50	 1
   28    47	 1
   28    48	 1
   28    53	 1
   28    54	 1
   28    31	 1
   28    34	 1
   28    57	 1
   29    32	 1
   29    58	 1
   29    56	 1
   29    35	 1
   29    36	 1
   29    37	 1
   30    33	 1
   30    57	 1
   30    62	 1
   30    63	 1
   30    64	 1
   30    68	 1
   30    69	 1
   30    70	 1
   30    65	 1
   30    66	 1
   30    67	 1
   31    55	 1
   31    35	 1
   31    36	 1
   31    37	 1
   31    58	 1
   32    34	 1
   33    55	 1
   33    56	 1
   34    55	 1
   34    56	 1
   35    68	 1
   35    69	 1
   35    70	 1
   35    65	 1
   35    66	 1
   35    67	 1
   36    62	 1
   36    63	 1
   36    64	 1
   36    65	 1
   36    66	 1
   36    67	 1
   37    62	 1
   37    63	 1
   37    64	 1
   37    68	 1
   37    69	 1
   37    70	 1
   38    40	 1
   39    40	 1
   40    41	 1
   41    42	 1
   41    43	 1
   47    49	 1
   47    50	 1
   48    49	 1
   48    50	 1
   49    51	 1
   49    52	 1
   50    51	 1
   50    52	 1
   51    53	 1
   51    54	 1
   52    53	 1
   52    54	 1
   56    57	 1
   57    58	 1

[ angles ]
;	ai	  aj	ak funct			c0			  c1			c2			  c3
    2     1    20	5 ;      CG311      CG324      NG3P2
    2     1    38	5 ;      CG311      CG324       HGA2
    2     1    39	5 ;      CG311      CG324       HGA2
   20     1    38	5 ;      NG3P2      CG324       HGA2
   20     1    39	5 ;      NG3P2      CG324       HGA2
   38     1    39	5 ;       HGA2      CG324       HGA2
    3     2     1	5 ;      CG311      CG311      CG324
    3     2    18	5 ;      CG311      CG311      OG311
    3     2    40	5 ;      CG311      CG311       HGA1
    1     2    18	5 ;      CG324      CG311      OG311
    1     2    40	5 ;      CG324      CG311       HGA1
   18     2    40	5 ;      OG311      CG311       HGA1
    4     3    13	5 ;      CG321      CG311      NG2S1
    4     3     2	5 ;      CG321      CG311      CG311
    4     3    41	5 ;      CG321      CG311       HGA1
   13     3     2	5 ;      NG2S1      CG311      CG311
   13     3    41	5 ;      NG2S1      CG311       HGA1
    2     3    41	5 ;      CG311      CG311       HGA1
    5     4     3	5 ;     CG2R61      CG321      CG311
    5     4    42	5 ;     CG2R61      CG321       HGA2
    5     4    43	5 ;     CG2R61      CG321       HGA2
    3     4    42	5 ;      CG311      CG321       HGA2
    3     4    43	5 ;      CG311      CG321       HGA2
   42     4    43	5 ;       HGA2      CG321       HGA2
    6     5     4	5 ;     CG2R61     CG2R61      CG321
    6     5    11	5 ;     CG2R61     CG2R61     CG2R61
    4     5    11	5 ;      CG321     CG2R61     CG2R61
    7     6     5	5 ;     CG2R66     CG2R61     CG2R61
    7     6    44	5 ;     CG2R66     CG2R61      HGR62
    5     6    44	5 ;     CG2R61     CG2R61      HGR62
    8     7     6	5 ;       FGR1     CG2R66     CG2R61
    8     7     9	5 ;       FGR1     CG2R66     CG2R61
    6     7     9	5 ;     CG2R61     CG2R66     CG2R61
    7     9    10	5 ;     CG2R66     CG2R61     CG2R66
    7     9    45	5 ;     CG2R66     CG2R61      HGR62
   10     9    45	5 ;     CG2R66     CG2R61      HGR62
    9    10    11	5 ;     CG2R61     CG2R66     CG2R61
    9    10    12	5 ;     CG2R61     CG2R66       FGR1
   11    10    12	5 ;     CG2R61     CG2R66       FGR1
    5    11    10	5 ;     CG2R61     CG2R61     CG2R66
    5    11    46	5 ;     CG2R61     CG2R61      HGR62
   10    11    46	5 ;     CG2R66     CG2R61      HGR62
   14    13    17	5 ;      CG2O1      NG2S1       HGP1
   14    13     3	5 ;      CG2O1      NG2S1      CG311
   17    13     3	5 ;       HGP1      NG2S1      CG311
   15    14    16	5 ;      OG2D1      CG2O1      CG331
   15    14    13	5 ;      OG2D1      CG2O1      NG2S1
   16    14    13	5 ;      CG331      CG2O1      NG2S1
   14    16    59	5 ;      CG2O1      CG331       HGA3
   14    16    60	5 ;      CG2O1      CG331       HGA3
   14    16    61	5 ;      CG2O1      CG331       HGA3
   59    16    60	5 ;       HGA3      CG331       HGA3
   59    16    61	5 ;       HGA3      CG331       HGA3
   60    16    61	5 ;       HGA3      CG331       HGA3
    2    18    19	5 ;      CG311      OG311       HGP1
   21    20    23	5 ;       HGP2      NG3P2     CG3C50
   21    20     1	5 ;       HGP2      NG3P2      CG324
   21    20    22	5 ;       HGP2      NG3P2       HGP2
   23    20     1	5 ;     CG3C50      NG3P2      CG324
   23    20    22	5 ;     CG3C50      NG3P2       HGP2
    1    20    22	5 ;      CG324      NG3P2       HGP2
   28    23    24	5 ;     CG2R61     CG3C50     CG3C52
   28    23    20	5 ;     CG2R61     CG3C50      NG3P2
   28    23    27	5 ;     CG2R61     CG3C50     CG3C52
   24    23    20	5 ;     CG3C52     CG3C50      NG3P2
   24    23    27	5 ;     CG3C52     CG3C50     CG3C52
   20    23    27	5 ;      NG3P2     CG3C50     CG3C52
   23    24    25	5 ;     CG3C50     CG3C52     CG3C52
   23    24    47	5 ;     CG3C50     CG3C52       HGA2
   23    24    48	5 ;     CG3C50     CG3C52       HGA2
   25    24    47	5 ;     CG3C52     CG3C52       HGA2
   25    24    48	5 ;     CG3C52     CG3C52       HGA2
   47    24    48	5 ;       HGA2     CG3C52       HGA2
   24    25    26	5 ;     CG3C52     CG3C52     CG3C52
   24    25    49	5 ;     CG3C52     CG3C52       HGA2
   24    25    50	5 ;     CG3C52     CG3C52       HGA2
   26    25    49	5 ;     CG3C52     CG3C52       HGA2
   26    25    50	5 ;     CG3C52     CG3C52       HGA2
   49    25    50	5 ;       HGA2     CG3C52       HGA2
   25    26    27	5 ;     CG3C52     CG3C52     CG3C52
   25    26    51	5 ;     CG3C52     CG3C52       HGA2
   25    26    52	5 ;     CG3C52     CG3C52       HGA2
   27    26    51	5 ;     CG3C52     CG3C52       HGA2
   27    26    52	5 ;     CG3C52     CG3C52       HGA2
   51    26    52	5 ;       HGA2     CG3C52       HGA2
   23    27    26	5 ;     CG3C50     CG3C52     CG3C52
   23    27    53	5 ;     CG3C50     CG3C52       HGA2
   23    27    54	5 ;     CG3C50     CG3C52       HGA2
   26    27    53	5 ;     CG3C52     CG3C52       HGA2
   26    27    54	5 ;     CG3C52     CG3C52       HGA2
   53    27    54	5 ;       HGA2     CG3C52       HGA2
   33    28    29	5 ;     CG2R61     CG2R61     CG2R61
   33    28    23	5 ;     CG2R61     CG2R61     CG3C50
   29    28    23	5 ;     CG2R61     CG2R61     CG3C50
   30    29    28	5 ;     CG2R61     CG2R61     CG2R61
   30    29    55	5 ;     CG2R61     CG2R61      HGR61
   28    29    55	5 ;     CG2R61     CG2R61      HGR61
   31    30    34	5 ;     CG2R61     CG2R61      CG301
   31    30    29	5 ;     CG2R61     CG2R61     CG2R61
   34    30    29	5 ;      CG301     CG2R61     CG2R61
   32    31    30	5 ;     CG2R61     CG2R61     CG2R61
   32    31    56	5 ;     CG2R61     CG2R61      HGR61
   30    31    56	5 ;     CG2R61     CG2R61      HGR61
   31    32    33	5 ;     CG2R61     CG2R61     CG2R61
   31    32    57	5 ;     CG2R61     CG2R61      HGR61
   33    32    57	5 ;     CG2R61     CG2R61      HGR61
   32    33    28	5 ;     CG2R61     CG2R61     CG2R61
   32    33    58	5 ;     CG2R61     CG2R61      HGR61
   28    33    58	5 ;     CG2R61     CG2R61      HGR61
   35    34    30	5 ;      CG331      CG301     CG2R61
   35    34    36	5 ;      CG331      CG301      CG331
   35    34    37	5 ;      CG331      CG301      CG331
   30    34    36	5 ;     CG2R61      CG301      CG331
   30    34    37	5 ;     CG2R61      CG301      CG331
   36    34    37	5 ;      CG331      CG301      CG331
   34    35    62	5 ;      CG301      CG331       HGA3
   34    35    63	5 ;      CG301      CG331       HGA3
   34    35    64	5 ;      CG301      CG331       HGA3
   62    35    63	5 ;       HGA3      CG331       HGA3
   62    35    64	5 ;       HGA3      CG331       HGA3
   63    35    64	5 ;       HGA3      CG331       HGA3
   34    36    68	5 ;      CG301      CG331       HGA3
   34    36    69	5 ;      CG301      CG331       HGA3
   34    36    70	5 ;      CG301      CG331       HGA3
   68    36    69	5 ;       HGA3      CG331       HGA3
   68    36    70	5 ;       HGA3      CG331       HGA3
   69    36    70	5 ;       HGA3      CG331       HGA3
   34    37    65	5 ;      CG301      CG331       HGA3
   34    37    66	5 ;      CG301      CG331       HGA3
   34    37    67	5 ;      CG301      CG331       HGA3
   65    37    66	5 ;       HGA3      CG331       HGA3
   65    37    67	5 ;       HGA3      CG331       HGA3
   66    37    67	5 ;       HGA3      CG331       HGA3

[ dihedrals ]
;	ai	  aj	ak	  al funct			  c0			c1			  c2			c3			  c4			c5
   20     1     2     3	 9 ;      NG3P2      CG324      CG311      CG311
   20     1     2    18	 9 ;      NG3P2      CG324      CG311      OG311
   20     1     2    40	 9 ;      NG3P2      CG324      CG311       HGA1
   38     1     2     3	 9 ;       HGA2      CG324      CG311      CG311
   38     1     2    18	 9 ;       HGA2      CG324      CG311      OG311
   38     1     2    40	 9 ;       HGA2      CG324      CG311       HGA1
   39     1     2     3	 9 ;       HGA2      CG324      CG311      CG311
   39     1     2    18	 9 ;       HGA2      CG324      CG311      OG311
   39     1     2    40	 9 ;       HGA2      CG324      CG311       HGA1
    2     1    20    21	 9 ;      CG311      CG324      NG3P2       HGP2
    2     1    20    23	 9 ;      CG311      CG324      NG3P2     CG3C50
    2     1    20    22	 9 ;      CG311      CG324      NG3P2       HGP2
   38     1    20    21	 9 ;       HGA2      CG324      NG3P2       HGP2
   38     1    20    23	 9 ;       HGA2      CG324      NG3P2     CG3C50
   38     1    20    22	 9 ;       HGA2      CG324      NG3P2       HGP2
   39     1    20    21	 9 ;       HGA2      CG324      NG3P2       HGP2
   39     1    20    23	 9 ;       HGA2      CG324      NG3P2     CG3C50
   39     1    20    22	 9 ;       HGA2      CG324      NG3P2       HGP2
    1     2     3     4	 9 ;      CG324      CG311      CG311      CG321
    1     2     3    13	 9 ;      CG324      CG311      CG311      NG2S1
    1     2     3    41	 9 ;      CG324      CG311      CG311       HGA1
   18     2     3     4	 9 ;      OG311      CG311      CG311      CG321
   18     2     3    13	 9 ;      OG311      CG311      CG311      NG2S1
   18     2     3    41	 9 ;      OG311      CG311      CG311       HGA1
   40     2     3     4	 9 ;       HGA1      CG311      CG311      CG321
   40     2     3    13	 9 ;       HGA1      CG311      CG311      NG2S1
   40     2     3    41	 9 ;       HGA1      CG311      CG311       HGA1
    3     2    18    19	 9 ;      CG311      CG311      OG311       HGP1
    1     2    18    19	 9 ;      CG324      CG311      OG311       HGP1
   40     2    18    19	 9 ;       HGA1      CG311      OG311       HGP1
   13     3     4     5	 9 ;      NG2S1      CG311      CG321     CG2R61
   13     3     4    42	 9 ;      NG2S1      CG311      CG321       HGA2
   13     3     4    43	 9 ;      NG2S1      CG311      CG321       HGA2
    2     3     4     5	 9 ;      CG311      CG311      CG321     CG2R61
    2     3     4    42	 9 ;      CG311      CG311      CG321       HGA2
    2     3     4    43	 9 ;      CG311      CG311      CG321       HGA2
   41     3     4     5	 9 ;       HGA1      CG311      CG321     CG2R61
   41     3     4    42	 9 ;       HGA1      CG311      CG321       HGA2
   41     3     4    43	 9 ;       HGA1      CG311      CG321       HGA2
    4     3    13    14	 9 ;      CG321      CG311      NG2S1      CG2O1
    4     3    13    17	 9 ;      CG321      CG311      NG2S1       HGP1
    2     3    13    14	 9 ;      CG311      CG311      NG2S1      CG2O1
    2     3    13    17	 9 ;      CG311      CG311      NG2S1       HGP1
   41     3    13    14	 9 ;       HGA1      CG311      NG2S1      CG2O1
   41     3    13    17	 9 ;       HGA1      CG311      NG2S1       HGP1
    3     4     5     6	 9 ;      CG311      CG321     CG2R61     CG2R61
    3     4     5    11	 9 ;      CG311      CG321     CG2R61     CG2R61
   42     4     5     6	 9 ;       HGA2      CG321     CG2R61     CG2R61
   42     4     5    11	 9 ;       HGA2      CG321     CG2R61     CG2R61
   43     4     5     6	 9 ;       HGA2      CG321     CG2R61     CG2R61
   43     4     5    11	 9 ;       HGA2      CG321     CG2R61     CG2R61
    4     5     6     7	 9 ;      CG321     CG2R61     CG2R61     CG2R66
    4     5     6    44	 9 ;      CG321     CG2R61     CG2R61      HGR62
   11     5     6     7	 9 ;     CG2R61     CG2R61     CG2R61     CG2R66
   11     5     6    44	 9 ;     CG2R61     CG2R61     CG2R61      HGR62
    6     5    11    10	 9 ;     CG2R61     CG2R61     CG2R61     CG2R66
    6     5    11    46	 9 ;     CG2R61     CG2R61     CG2R61      HGR62
    4     5    11    10	 9 ;      CG321     CG2R61     CG2R61     CG2R66
    4     5    11    46	 9 ;      CG321     CG2R61     CG2R61      HGR62
    5     6     7     8	 9 ;     CG2R61     CG2R61     CG2R66       FGR1
    5     6     7     9	 9 ;     CG2R61     CG2R61     CG2R66     CG2R61
   44     6     7     8	 9 ;      HGR62     CG2R61     CG2R66       FGR1
   44     6     7     9	 9 ;      HGR62     CG2R61     CG2R66     CG2R61
    8     7     9    10	 9 ;       FGR1     CG2R66     CG2R61     CG2R66
    8     7     9    45	 9 ;       FGR1     CG2R66     CG2R61      HGR62
    6     7     9    10	 9 ;     CG2R61     CG2R66     CG2R61     CG2R66
    6     7     9    45	 9 ;     CG2R61     CG2R66     CG2R61      HGR62
    7     9    10    11	 9 ;     CG2R66     CG2R61     CG2R66     CG2R61
    7     9    10    12	 9 ;     CG2R66     CG2R61     CG2R66       FGR1
   45     9    10    11	 9 ;      HGR62     CG2R61     CG2R66     CG2R61
   45     9    10    12	 9 ;      HGR62     CG2R61     CG2R66       FGR1
    9    10    11     5	 9 ;     CG2R61     CG2R66     CG2R61     CG2R61
    9    10    11    46	 9 ;     CG2R61     CG2R66     CG2R61      HGR62
   12    10    11     5	 9 ;       FGR1     CG2R66     CG2R61     CG2R61
   12    10    11    46	 9 ;       FGR1     CG2R66     CG2R61      HGR62
   17    13    14    15	 9 ;       HGP1      NG2S1      CG2O1      OG2D1
   17    13    14    16	 9 ;       HGP1      NG2S1      CG2O1      CG331
    3    13    14    15	 9 ;      CG311      NG2S1      CG2O1      OG2D1
    3    13    14    16	 9 ;      CG311      NG2S1      CG2O1      CG331
   15    14    16    59	 9 ;      OG2D1      CG2O1      CG331       HGA3
   15    14    16    60	 9 ;      OG2D1      CG2O1      CG331       HGA3
   15    14    16    61	 9 ;      OG2D1      CG2O1      CG331       HGA3
   13    14    16    59	 9 ;      NG2S1      CG2O1      CG331       HGA3
   13    14    16    60	 9 ;      NG2S1      CG2O1      CG331       HGA3
   13    14    16    61	 9 ;      NG2S1      CG2O1      CG331       HGA3
   21    20    23    28	 9 ;       HGP2      NG3P2     CG3C50     CG2R61
   21    20    23    24	 9 ;       HGP2      NG3P2     CG3C50     CG3C52
   21    20    23    27	 9 ;       HGP2      NG3P2     CG3C50     CG3C52
    1    20    23    28	 9 ;      CG324      NG3P2     CG3C50     CG2R61
    1    20    23    24	 9 ;      CG324      NG3P2     CG3C50     CG3C52
    1    20    23    27	 9 ;      CG324      NG3P2     CG3C50     CG3C52
   22    20    23    28	 9 ;       HGP2      NG3P2     CG3C50     CG2R61
   22    20    23    24	 9 ;       HGP2      NG3P2     CG3C50     CG3C52
   22    20    23    27	 9 ;       HGP2      NG3P2     CG3C50     CG3C52
   24    23    28    33	 9 ;     CG3C52     CG3C50     CG2R61     CG2R61
   24    23    28    29	 9 ;     CG3C52     CG3C50     CG2R61     CG2R61
   20    23    28    33	 9 ;      NG3P2     CG3C50     CG2R61     CG2R61
   20    23    28    29	 9 ;      NG3P2     CG3C50     CG2R61     CG2R61
   27    23    28    33	 9 ;     CG3C52     CG3C50     CG2R61     CG2R61
   27    23    28    29	 9 ;     CG3C52     CG3C50     CG2R61     CG2R61
   28    23    24    25	 9 ;     CG2R61     CG3C50     CG3C52     CG3C52
   28    23    24    47	 9 ;     CG2R61     CG3C50     CG3C52       HGA2
   28    23    24    48	 9 ;     CG2R61     CG3C50     CG3C52       HGA2
   20    23    24    25	 9 ;      NG3P2     CG3C50     CG3C52     CG3C52
   20    23    24    47	 9 ;      NG3P2     CG3C50     CG3C52       HGA2
   20    23    24    48	 9 ;      NG3P2     CG3C50     CG3C52       HGA2
   27    23    24    25	 9 ;     CG3C52     CG3C50     CG3C52     CG3C52
   27    23    24    47	 9 ;     CG3C52     CG3C50     CG3C52       HGA2
   27    23    24    48	 9 ;     CG3C52     CG3C50     CG3C52       HGA2
   28    23    27    26	 9 ;     CG2R61     CG3C50     CG3C52     CG3C52
   28    23    27    53	 9 ;     CG2R61     CG3C50     CG3C52       HGA2
   28    23    27    54	 9 ;     CG2R61     CG3C50     CG3C52       HGA2
   24    23    27    26	 9 ;     CG3C52     CG3C50     CG3C52     CG3C52
   24    23    27    53	 9 ;     CG3C52     CG3C50     CG3C52       HGA2
   24    23    27    54	 9 ;     CG3C52     CG3C50     CG3C52       HGA2
   20    23    27    26	 9 ;      NG3P2     CG3C50     CG3C52     CG3C52
   20    23    27    53	 9 ;      NG3P2     CG3C50     CG3C52       HGA2
   20    23    27    54	 9 ;      NG3P2     CG3C50     CG3C52       HGA2
   23    24    25    26	 9 ;     CG3C50     CG3C52     CG3C52     CG3C52
   23    24    25    49	 9 ;     CG3C50     CG3C52     CG3C52       HGA2
   23    24    25    50	 9 ;     CG3C50     CG3C52     CG3C52       HGA2
   47    24    25    26	 9 ;       HGA2     CG3C52     CG3C52     CG3C52
   47    24    25    49	 9 ;       HGA2     CG3C52     CG3C52       HGA2
   47    24    25    50	 9 ;       HGA2     CG3C52     CG3C52       HGA2
   48    24    25    26	 9 ;       HGA2     CG3C52     CG3C52     CG3C52
   48    24    25    49	 9 ;       HGA2     CG3C52     CG3C52       HGA2
   48    24    25    50	 9 ;       HGA2     CG3C52     CG3C52       HGA2
   24    25    26    27	 9 ;     CG3C52     CG3C52     CG3C52     CG3C52
   24    25    26    51	 9 ;     CG3C52     CG3C52     CG3C52       HGA2
   24    25    26    52	 9 ;     CG3C52     CG3C52     CG3C52       HGA2
   49    25    26    27	 9 ;       HGA2     CG3C52     CG3C52     CG3C52
   49    25    26    51	 9 ;       HGA2     CG3C52     CG3C52       HGA2
   49    25    26    52	 9 ;       HGA2     CG3C52     CG3C52       HGA2
   50    25    26    27	 9 ;       HGA2     CG3C52     CG3C52     CG3C52
   50    25    26    51	 9 ;       HGA2     CG3C52     CG3C52       HGA2
   50    25    26    52	 9 ;       HGA2     CG3C52     CG3C52       HGA2
   25    26    27    23	 9 ;     CG3C52     CG3C52     CG3C52     CG3C50
   25    26    27    53	 9 ;     CG3C52     CG3C52     CG3C52       HGA2
   25    26    27    54	 9 ;     CG3C52     CG3C52     CG3C52       HGA2
   51    26    27    23	 9 ;       HGA2     CG3C52     CG3C52     CG3C50
   51    26    27    53	 9 ;       HGA2     CG3C52     CG3C52       HGA2
   51    26    27    54	 9 ;       HGA2     CG3C52     CG3C52       HGA2
   52    26    27    23	 9 ;       HGA2     CG3C52     CG3C52     CG3C50
   52    26    27    53	 9 ;       HGA2     CG3C52     CG3C52       HGA2
   52    26    27    54	 9 ;       HGA2     CG3C52     CG3C52       HGA2
   29    28    33    32	 9 ;     CG2R61     CG2R61     CG2R61     CG2R61
   29    28    33    58	 9 ;     CG2R61     CG2R61     CG2R61      HGR61
   23    28    33    32	 9 ;     CG3C50     CG2R61     CG2R61     CG2R61
   23    28    33    58	 9 ;     CG3C50     CG2R61     CG2R61      HGR61
   33    28    29    30	 9 ;     CG2R61     CG2R61     CG2R61     CG2R61
   33    28    29    55	 9 ;     CG2R61     CG2R61     CG2R61      HGR61
   23    28    29    30	 9 ;     CG3C50     CG2R61     CG2R61     CG2R61
   23    28    29    55	 9 ;     CG3C50     CG2R61     CG2R61      HGR61
   28    29    30    31	 9 ;     CG2R61     CG2R61     CG2R61     CG2R61
   28    29    30    34	 9 ;     CG2R61     CG2R61     CG2R61      CG301
   55    29    30    31	 9 ;      HGR61     CG2R61     CG2R61     CG2R61
   55    29    30    34	 9 ;      HGR61     CG2R61     CG2R61      CG301
   34    30    31    32	 9 ;      CG301     CG2R61     CG2R61     CG2R61
   34    30    31    56	 9 ;      CG301     CG2R61     CG2R61      HGR61
   29    30    31    32	 9 ;     CG2R61     CG2R61     CG2R61     CG2R61
   29    30    31    56	 9 ;     CG2R61     CG2R61     CG2R61      HGR61
   31    30    34    35	 9 ;     CG2R61     CG2R61      CG301      CG331
   31    30    34    36	 9 ;     CG2R61     CG2R61      CG301      CG331
   31    30    34    37	 9 ;     CG2R61     CG2R61      CG301      CG331
   29    30    34    35	 9 ;     CG2R61     CG2R61      CG301      CG331
   29    30    34    36	 9 ;     CG2R61     CG2R61      CG301      CG331
   29    30    34    37	 9 ;     CG2R61     CG2R61      CG301      CG331
   30    31    32    33	 9 ;     CG2R61     CG2R61     CG2R61     CG2R61
   30    31    32    57	 9 ;     CG2R61     CG2R61     CG2R61      HGR61
   56    31    32    33	 9 ;      HGR61     CG2R61     CG2R61     CG2R61
   56    31    32    57	 9 ;      HGR61     CG2R61     CG2R61      HGR61
   31    32    33    28	 9 ;     CG2R61     CG2R61     CG2R61     CG2R61
   31    32    33    58	 9 ;     CG2R61     CG2R61     CG2R61      HGR61
   57    32    33    28	 9 ;      HGR61     CG2R61     CG2R61     CG2R61
   57    32    33    58	 9 ;      HGR61     CG2R61     CG2R61      HGR61
   30    34    35    62	 9 ;     CG2R61      CG301      CG331       HGA3
   30    34    35    63	 9 ;     CG2R61      CG301      CG331       HGA3
   30    34    35    64	 9 ;     CG2R61      CG301      CG331       HGA3
   36    34    35    62	 9 ;      CG331      CG301      CG331       HGA3
   36    34    35    63	 9 ;      CG331      CG301      CG331       HGA3
   36    34    35    64	 9 ;      CG331      CG301      CG331       HGA3
   37    34    35    62	 9 ;      CG331      CG301      CG331       HGA3
   37    34    35    63	 9 ;      CG331      CG301      CG331       HGA3
   37    34    35    64	 9 ;      CG331      CG301      CG331       HGA3
   35    34    36    68	 9 ;      CG331      CG301      CG331       HGA3
   35    34    36    69	 9 ;      CG331      CG301      CG331       HGA3
   35    34    36    70	 9 ;      CG331      CG301      CG331       HGA3
   30    34    36    68	 9 ;     CG2R61      CG301      CG331       HGA3
   30    34    36    69	 9 ;     CG2R61      CG301      CG331       HGA3
   30    34    36    70	 9 ;     CG2R61      CG301      CG331       HGA3
   37    34    36    68	 9 ;      CG331      CG301      CG331       HGA3
   37    34    36    69	 9 ;      CG331      CG301      CG331       HGA3
   37    34    36    70	 9 ;      CG331      CG301      CG331       HGA3
   35    34    37    65	 9 ;      CG331      CG301      CG331       HGA3
   35    34    37    66	 9 ;      CG331      CG301      CG331       HGA3
   35    34    37    67	 9 ;      CG331      CG301      CG331       HGA3
   30    34    37    65	 9 ;     CG2R61      CG301      CG331       HGA3
   30    34    37    66	 9 ;     CG2R61      CG301      CG331       HGA3
   30    34    37    67	 9 ;     CG2R61      CG301      CG331       HGA3
   36    34    37    65	 9 ;      CG331      CG301      CG331       HGA3
   36    34    37    66	 9 ;      CG331      CG301      CG331       HGA3
   36    34    37    67	 9 ;      CG331      CG301      CG331       HGA3

[ dihedrals ]
;	ai	  aj	ak	  al funct			  c0			c1			  c2			c3
   14    16    13    15	 2

