Gromacs Runs One Microsecond At Cannonball Speeds
   64
    1LIG     C1    1  -1.251   0.230  -1.663
    1LIG     C2    2  -1.250   0.357  -1.602
    1LIG     C3    3  -1.264   0.478  -1.674
    1LIG     C4    4  -1.273   0.601  -1.606
    1LIG     C5    5  -1.305   0.717  -1.676
    1LIG     C6    6  -1.314   0.705  -1.816
    1LIG     N1    7  -1.297   0.589  -1.883
    1LIG    HN1    8  -1.299   0.587  -1.985
    1LIG     C7    9  -1.275   0.475  -1.813
    1LIG     C8   10  -1.269   0.351  -1.875
    1LIG     C9   11  -1.259   0.229  -1.802
    1LIG    C10   12  -1.345   0.847  -1.606
    1LIG    C11   13  -1.491   0.873  -1.561
    1LIG    C12   14  -1.501   1.010  -1.492
    1LIG    C13   15  -1.555   0.773  -1.466
    1LIG      O   16  -1.543   0.785  -1.344
    1LIG     N2   17  -1.613   0.663  -1.523
    1LIG     H1   18  -1.651   0.672  -1.616
    1LIG    C14   19  -1.664   0.555  -1.441
    1LIG    C15   20  -1.600   0.420  -1.475
    1LIG    C16   21  -1.659   0.338  -1.593
    1LIG    C17   22  -1.608   0.193  -1.587
    1LIG    C18   23  -1.813   0.340  -1.579
    1LIG    C19   24  -1.627   0.396  -1.732
    1LIG     N3   25  -1.350   0.814  -1.895
    1LIG     H2   26  -1.451   0.809  -1.908
    1LIG     H3   27  -1.301   0.816  -1.984
    1LIG    C20   28  -1.252   0.110  -1.574
    1LIG     N4   29  -1.294  -0.002  -1.640
    1LIG    C21   30  -1.314  -0.117  -1.572
    1LIG    HN2   31  -1.312   0.001  -1.741
    1LIG    C22   32  -1.291  -0.129  -1.437
    1LIG    C23   33  -1.243  -0.017  -1.369
    1LIG    C24   34  -1.223   0.104  -1.438
    1LIG     CL   35  -1.170   0.238  -1.343
    1LIG     HC   36  -1.238   0.363  -1.495
    1LIG    HC1   37  -1.255   0.605  -1.500
    1LIG    HC2   38  -1.272   0.346  -1.983
    1LIG    HC3   39  -1.257   0.135  -1.855
    1LIG    HC4   40  -1.318   0.928  -1.674
    1LIG    HC5   41  -1.281   0.857  -1.518
    1LIG    HC6   42  -1.552   0.877  -1.651
    1LIG    HC7   43  -1.643   0.578  -1.337
    1LIG    HC8   44  -1.772   0.548  -1.455
    1LIG    HC9   45  -1.495   0.439  -1.497
    1LIG   HC10   46  -1.605   0.358  -1.385
    1LIG   HC11   47  -1.349  -0.204  -1.626
    1LIG   HC12   48  -1.309  -0.222  -1.385
    1LIG   HC13   49  -1.222  -0.023  -1.263
    1LIG   HC14   50  -1.630   0.151  -1.489
    1LIG   HC15   51  -1.500   0.192  -1.603
    1LIG   HC16   52  -1.657   0.134  -1.664
    1LIG   HC17   53  -1.518   0.397  -1.746
    1LIG   HC18   54  -1.673   0.335  -1.809
    1LIG   HC19   55  -1.665   0.498  -1.738
    1LIG   HC20   56  -1.604   1.028  -1.462
    1LIG   HC21   57  -1.436   1.012  -1.405
    1LIG   HC22   58  -1.470   1.088  -1.562
    1LIG   HC23   59  -1.855   0.256  -1.634
    1LIG   HC24   60  -1.852   0.433  -1.620
    1LIG   HC25   61  -1.840   0.331  -1.474
    1LIG    H32   62  -1.168   0.488  -1.824
    1LIG    H33   63  -1.148   0.088  -1.600
    1LIG    LP1   64  -1.119   0.366  -1.253
   0.00000   0.00000   0.00000
