; Created by cgenff_charmm2gmx.py

[ moleculetype ]
; Name			   nrexcl
LIG				 3

[ atoms ]
;	 nr		  type	resnr residue  atom   cgnr	   charge		mass  typeB    chargeB		massB
; residue	 1 LIG rtp LIG q	qsum
     1     CG2DC1      1    LIG     C1      1      0.161     12.011   ;
     2     CG2DC1      1    LIG     C2      2     -0.241     12.011   ;
     3     CG2DC2      1    LIG     C3      3      0.128     12.011   ;
     4     CG2DC2      1    LIG     C4      4     -0.265     12.011   ;
     5     CG2DC1      1    LIG     C5      5     -0.110     12.011   ;
     6     CG2D1O      1    LIG     C6      6      0.152     12.011   ;
     7      NG311      1    LIG     N1      7     -0.634     14.007   ;
     8     HGPAM1      1    LIG    HN1      8      0.328      1.008   ;
     9      CG311      1    LIG     C7      9      0.369     12.011   ;
    10     CG2DC2      1    LIG     C8     10     -0.271     12.011   ;
    11     CG2DC2      1    LIG     C9     11     -0.269     12.011   ;
    12      CG321      1    LIG    C10     12     -0.204     12.011   ;
    13      CG311      1    LIG    C11     13     -0.042     12.011   ;
    14      CG331      1    LIG    C12     14     -0.265     12.011   ;
    15      CG2O1      1    LIG    C13     15      0.491     12.011   ;
    16      OG2D1      1    LIG      O     16     -0.514     15.999   ;
    17      NG2S1      1    LIG     N2     17     -0.431     14.007   ;
    18       HGP1      1    LIG     H1     18      0.305      1.008   ;
    19      CG321      1    LIG    C14     19     -0.059     12.011   ;
    20      CG321      1    LIG    C15     20     -0.184     12.011   ;
    21      CG301      1    LIG    C16     21      0.047     12.011   ;
    22      CG331      1    LIG    C17     22     -0.285     12.011   ;
    23      CG331      1    LIG    C18     23     -0.285     12.011   ;
    24      CG331      1    LIG    C19     24     -0.285     12.011   ;
    25      NG321      1    LIG     N3     25     -0.754     14.007   ;
    26     HGPAM2      1    LIG     H2     26      0.404      1.008   ;
    27     HGPAM2      1    LIG     H3     27      0.404      1.008   ;
    28      CG311      1    LIG    C20     28      0.356     12.011   ;
    29      NG311      1    LIG     N4     29     -0.642     14.007   ;
    30     CG2D1O      1    LIG    C21     30     -0.061     12.011   ;
    31     HGPAM1      1    LIG    HN2     31      0.330      1.008   ;
    32     CG2DC1      1    LIG    C22     32     -0.244     12.011   ;
    33     CG2DC2      1    LIG    C23     33     -0.148     12.011   ;
    34     CG2DC2      1    LIG    C24     34     -0.059     12.011   ;
    35      CLGA1      1    LIG     CL     35     -0.169     35.453   ;
    36       HGA4      1    LIG     HC     36      0.135      1.008   ;
    37       HGA4      1    LIG    HC1     37      0.150      1.008   ;
    38       HGA4      1    LIG    HC2     38      0.134      1.008   ;
    39       HGA4      1    LIG    HC3     39      0.135      1.008   ;
    40       HGA2      1    LIG    HC4     40      0.090      1.008   ;
    41       HGA2      1    LIG    HC5     41      0.090      1.008   ;
    42       HGA1      1    LIG    HC6     42      0.090      1.008   ;
    43       HGA2      1    LIG    HC7     43      0.090      1.008   ;
    44       HGA2      1    LIG    HC8     44      0.090      1.008   ;
    45       HGA2      1    LIG    HC9     45      0.090      1.008   ;
    46       HGA2      1    LIG   HC10     46      0.090      1.008   ;
    47       HGA4      1    LIG   HC11     47      0.162      1.008   ;
    48       HGA4      1    LIG   HC12     48      0.150      1.008   ;
    49       HGA4      1    LIG   HC13     49      0.140      1.008   ;
    50       HGA3      1    LIG   HC14     50      0.090      1.008   ;
    51       HGA3      1    LIG   HC15     51      0.090      1.008   ;
    52       HGA3      1    LIG   HC16     52      0.090      1.008   ;
    53       HGA3      1    LIG   HC17     53      0.090      1.008   ;
    54       HGA3      1    LIG   HC18     54      0.090      1.008   ;
    55       HGA3      1    LIG   HC19     55      0.090      1.008   ;
    56       HGA3      1    LIG   HC20     56      0.090      1.008   ;
    57       HGA3      1    LIG   HC21     57      0.090      1.008   ;
    58       HGA3      1    LIG   HC22     58      0.090      1.008   ;
    59       HGA3      1    LIG   HC23     59      0.090      1.008   ;
    60       HGA3      1    LIG   HC24     60      0.090      1.008   ;
    61       HGA3      1    LIG   HC25     61      0.090      1.008   ;
    62       HGA1      1    LIG    H32     62      0.090      1.008   ;
    63       HGA1      1    LIG    H33     63      0.090      1.008   ;
    64        LPH      1    LIG    LP1     64      0.050      0.000   ;

[ bonds ]
;	ai	  aj funct			  c0			c1			  c2			c3
    1    11	 1 ;      CG2DC1     CG2DC2
    1     2	 1 ;      CG2DC1     CG2DC1
    1    28	 1 ;      CG2DC1      CG311
    2     3	 1 ;      CG2DC1     CG2DC2
    2    36	 1 ;      CG2DC1       HGA4
    3     9	 1 ;      CG2DC2      CG311
    3     4	 1 ;      CG2DC2     CG2DC2
    4     5	 1 ;      CG2DC2     CG2DC1
    4    37	 1 ;      CG2DC2       HGA4
    5     6	 1 ;      CG2DC1     CG2D1O
    5    12	 1 ;      CG2DC1      CG321
    6     7	 1 ;      CG2D1O      NG311
    6    25	 1 ;      CG2D1O      NG321
    7     8	 1 ;       NG311     HGPAM1
    7     9	 1 ;       NG311      CG311
    9    10	 1 ;       CG311     CG2DC2
    9    62	 1 ;       CG311       HGA1
   10    11	 1 ;      CG2DC2     CG2DC2
   10    38	 1 ;      CG2DC2       HGA4
   11    39	 1 ;      CG2DC2       HGA4
   12    13	 1 ;       CG321      CG311
   12    40	 1 ;       CG321       HGA2
   12    41	 1 ;       CG321       HGA2
   13    14	 1 ;       CG311      CG331
   13    15	 1 ;       CG311      CG2O1
   13    42	 1 ;       CG311       HGA1
   14    56	 1 ;       CG331       HGA3
   14    57	 1 ;       CG331       HGA3
   14    58	 1 ;       CG331       HGA3
   15    17	 1 ;       CG2O1      NG2S1
   15    16	 1 ;       CG2O1      OG2D1
   17    18	 1 ;       NG2S1       HGP1
   17    19	 1 ;       NG2S1      CG321
   19    20	 1 ;       CG321      CG321
   19    43	 1 ;       CG321       HGA2
   19    44	 1 ;       CG321       HGA2
   20    21	 1 ;       CG321      CG301
   20    45	 1 ;       CG321       HGA2
   20    46	 1 ;       CG321       HGA2
   21    24	 1 ;       CG301      CG331
   21    22	 1 ;       CG301      CG331
   21    23	 1 ;       CG301      CG331
   22    50	 1 ;       CG331       HGA3
   22    51	 1 ;       CG331       HGA3
   22    52	 1 ;       CG331       HGA3
   23    59	 1 ;       CG331       HGA3
   23    60	 1 ;       CG331       HGA3
   23    61	 1 ;       CG331       HGA3
   24    53	 1 ;       CG331       HGA3
   24    54	 1 ;       CG331       HGA3
   24    55	 1 ;       CG331       HGA3
   25    27	 1 ;       NG321     HGPAM2
   25    26	 1 ;       NG321     HGPAM2
   28    29	 1 ;       CG311      NG311
   28    34	 1 ;       CG311     CG2DC2
   28    63	 1 ;       CG311       HGA1
   29    31	 1 ;       NG311     HGPAM1
   29    30	 1 ;       NG311     CG2D1O
   30    32	 1 ;      CG2D1O     CG2DC1
   30    47	 1 ;      CG2D1O       HGA4
   32    33	 1 ;      CG2DC1     CG2DC2
   32    48	 1 ;      CG2DC1       HGA4
   33    34	 1 ;      CG2DC2     CG2DC2
   33    49	 1 ;      CG2DC2       HGA4
   34    35	 1 ;      CG2DC2      CLGA1

[ pairs ]
;	ai	  aj funct			  c0			c1			  c2			c3
    1     9	 1
    1     4	 1
    1    38	 1
    1    31	 1
    1    30	 1
    1    33	 1
    1    35	 1
   64     1	 1
    2    10	 1
    2    39	 1
    2    29	 1
    2    34	 1
    2    63	 1
    2     7	 1
    2    62	 1
    2     5	 1
    2    37	 1
    3    11	 1
    3    28	 1
    3     6	 1
    3    12	 1
    3     8	 1
    3    38	 1
    4    36	 1
    4    10	 1
    4     7	 1
    4    62	 1
    4    25	 1
    4    13	 1
    4    40	 1
    4    41	 1
    5     9	 1
    5     8	 1
    5    27	 1
    5    26	 1
    5    14	 1
    5    15	 1
    5    42	 1
    6    37	 1
    6    13	 1
    6    40	 1
    6    41	 1
    6    10	 1
    6    62	 1
    7    12	 1
    7    27	 1
    7    26	 1
    7    11	 1
    7    38	 1
    8    25	 1
    8    10	 1
    8    62	 1
    9    36	 1
    9    37	 1
    9    25	 1
    9    39	 1
   10    28	 1
   11    36	 1
   11    29	 1
   11    34	 1
   11    63	 1
   11    62	 1
   12    37	 1
   12    25	 1
   12    56	 1
   12    57	 1
   12    58	 1
   12    17	 1
   12    16	 1
   13    18	 1
   13    19	 1
   14    40	 1
   14    41	 1
   14    17	 1
   14    16	 1
   15    40	 1
   15    41	 1
   15    56	 1
   15    57	 1
   15    58	 1
   15    20	 1
   15    43	 1
   15    44	 1
   16    42	 1
   16    18	 1
   16    19	 1
   17    42	 1
   17    21	 1
   17    45	 1
   17    46	 1
   18    20	 1
   18    43	 1
   18    44	 1
   19    24	 1
   19    22	 1
   19    23	 1
   20    53	 1
   20    54	 1
   20    55	 1
   20    50	 1
   20    51	 1
   20    52	 1
   20    59	 1
   20    60	 1
   20    61	 1
   21    43	 1
   21    44	 1
   22    45	 1
   22    46	 1
   22    53	 1
   22    54	 1
   22    55	 1
   22    59	 1
   22    60	 1
   22    61	 1
   23    45	 1
   23    46	 1
   23    53	 1
   23    54	 1
   23    55	 1
   23    50	 1
   23    51	 1
   23    52	 1
   24    45	 1
   24    46	 1
   24    50	 1
   24    51	 1
   24    52	 1
   24    59	 1
   24    60	 1
   24    61	 1
   28    39	 1
   28    36	 1
   28    32	 1
   28    47	 1
   28    49	 1
   29    33	 1
   29    35	 1
   64    29	 1
   29    48	 1
   30    34	 1
   30    63	 1
   30    49	 1
   31    34	 1
   31    63	 1
   31    32	 1
   31    47	 1
   32    35	 1
   64    32	 1
   33    63	 1
   33    47	 1
   34    48	 1
   35    63	 1
   64    63	 1
   35    49	 1
   64    49	 1
   38    62	 1
   38    39	 1
   40    42	 1
   41    42	 1
   42    56	 1
   42    57	 1
   42    58	 1
   43    45	 1
   43    46	 1
   44    45	 1
   44    46	 1
   47    48	 1
   48    49	 1

[ angles ]
;	ai	  aj	ak funct			c0			  c1			c2			  c3
   11     1     2	5 ;     CG2DC2     CG2DC1     CG2DC1
   11     1    28	5 ;     CG2DC2     CG2DC1      CG311
    2     1    28	5 ;     CG2DC1     CG2DC1      CG311
    1     2     3	5 ;     CG2DC1     CG2DC1     CG2DC2
    1     2    36	5 ;     CG2DC1     CG2DC1       HGA4
    3     2    36	5 ;     CG2DC2     CG2DC1       HGA4
    9     3     2	5 ;      CG311     CG2DC2     CG2DC1
    9     3     4	5 ;      CG311     CG2DC2     CG2DC2
    2     3     4	5 ;     CG2DC1     CG2DC2     CG2DC2
    3     4     5	5 ;     CG2DC2     CG2DC2     CG2DC1
    3     4    37	5 ;     CG2DC2     CG2DC2       HGA4
    5     4    37	5 ;     CG2DC1     CG2DC2       HGA4
    6     5     4	5 ;     CG2D1O     CG2DC1     CG2DC2
    6     5    12	5 ;     CG2D1O     CG2DC1      CG321
    4     5    12	5 ;     CG2DC2     CG2DC1      CG321
    7     6    25	5 ;      NG311     CG2D1O      NG321
    7     6     5	5 ;      NG311     CG2D1O     CG2DC1
   25     6     5	5 ;      NG321     CG2D1O     CG2DC1
    8     7     9	5 ;     HGPAM1      NG311      CG311
    8     7     6	5 ;     HGPAM1      NG311     CG2D1O
    9     7     6	5 ;      CG311      NG311     CG2D1O
   10     9     7	5 ;     CG2DC2      CG311      NG311
   10     9     3	5 ;     CG2DC2      CG311     CG2DC2
   10     9    62	5 ;     CG2DC2      CG311       HGA1
    7     9     3	5 ;      NG311      CG311     CG2DC2
    7     9    62	5 ;      NG311      CG311       HGA1
    3     9    62	5 ;     CG2DC2      CG311       HGA1
   11    10     9	5 ;     CG2DC2     CG2DC2      CG311
   11    10    38	5 ;     CG2DC2     CG2DC2       HGA4
    9    10    38	5 ;      CG311     CG2DC2       HGA4
   10    11     1	5 ;     CG2DC2     CG2DC2     CG2DC1
   10    11    39	5 ;     CG2DC2     CG2DC2       HGA4
    1    11    39	5 ;     CG2DC1     CG2DC2       HGA4
    5    12    13	5 ;     CG2DC1      CG321      CG311
    5    12    40	5 ;     CG2DC1      CG321       HGA2
    5    12    41	5 ;     CG2DC1      CG321       HGA2
   13    12    40	5 ;      CG311      CG321       HGA2
   13    12    41	5 ;      CG311      CG321       HGA2
   40    12    41	5 ;       HGA2      CG321       HGA2
   12    13    14	5 ;      CG321      CG311      CG331
   12    13    15	5 ;      CG321      CG311      CG2O1
   12    13    42	5 ;      CG321      CG311       HGA1
   14    13    15	5 ;      CG331      CG311      CG2O1
   14    13    42	5 ;      CG331      CG311       HGA1
   15    13    42	5 ;      CG2O1      CG311       HGA1
   13    14    56	5 ;      CG311      CG331       HGA3
   13    14    57	5 ;      CG311      CG331       HGA3
   13    14    58	5 ;      CG311      CG331       HGA3
   56    14    57	5 ;       HGA3      CG331       HGA3
   56    14    58	5 ;       HGA3      CG331       HGA3
   57    14    58	5 ;       HGA3      CG331       HGA3
   13    15    17	5 ;      CG311      CG2O1      NG2S1
   13    15    16	5 ;      CG311      CG2O1      OG2D1
   17    15    16	5 ;      NG2S1      CG2O1      OG2D1
   18    17    15	5 ;       HGP1      NG2S1      CG2O1
   18    17    19	5 ;       HGP1      NG2S1      CG321
   15    17    19	5 ;      CG2O1      NG2S1      CG321
   17    19    20	5 ;      NG2S1      CG321      CG321
   17    19    43	5 ;      NG2S1      CG321       HGA2
   17    19    44	5 ;      NG2S1      CG321       HGA2
   20    19    43	5 ;      CG321      CG321       HGA2
   20    19    44	5 ;      CG321      CG321       HGA2
   43    19    44	5 ;       HGA2      CG321       HGA2
   21    20    19	5 ;      CG301      CG321      CG321
   21    20    45	5 ;      CG301      CG321       HGA2
   21    20    46	5 ;      CG301      CG321       HGA2
   19    20    45	5 ;      CG321      CG321       HGA2
   19    20    46	5 ;      CG321      CG321       HGA2
   45    20    46	5 ;       HGA2      CG321       HGA2
   24    21    22	5 ;      CG331      CG301      CG331
   24    21    20	5 ;      CG331      CG301      CG321
   24    21    23	5 ;      CG331      CG301      CG331
   22    21    20	5 ;      CG331      CG301      CG321
   22    21    23	5 ;      CG331      CG301      CG331
   20    21    23	5 ;      CG321      CG301      CG331
   21    22    50	5 ;      CG301      CG331       HGA3
   21    22    51	5 ;      CG301      CG331       HGA3
   21    22    52	5 ;      CG301      CG331       HGA3
   50    22    51	5 ;       HGA3      CG331       HGA3
   50    22    52	5 ;       HGA3      CG331       HGA3
   51    22    52	5 ;       HGA3      CG331       HGA3
   21    23    59	5 ;      CG301      CG331       HGA3
   21    23    60	5 ;      CG301      CG331       HGA3
   21    23    61	5 ;      CG301      CG331       HGA3
   59    23    60	5 ;       HGA3      CG331       HGA3
   59    23    61	5 ;       HGA3      CG331       HGA3
   60    23    61	5 ;       HGA3      CG331       HGA3
   21    24    53	5 ;      CG301      CG331       HGA3
   21    24    54	5 ;      CG301      CG331       HGA3
   21    24    55	5 ;      CG301      CG331       HGA3
   53    24    54	5 ;       HGA3      CG331       HGA3
   53    24    55	5 ;       HGA3      CG331       HGA3
   54    24    55	5 ;       HGA3      CG331       HGA3
   27    25    26	5 ;     HGPAM2      NG321     HGPAM2
   27    25     6	5 ;     HGPAM2      NG321     CG2D1O
   26    25     6	5 ;     HGPAM2      NG321     CG2D1O
    1    28    29	5 ;     CG2DC1      CG311      NG311
    1    28    34	5 ;     CG2DC1      CG311     CG2DC2
    1    28    63	5 ;     CG2DC1      CG311       HGA1
   29    28    34	5 ;      NG311      CG311     CG2DC2
   29    28    63	5 ;      NG311      CG311       HGA1
   34    28    63	5 ;     CG2DC2      CG311       HGA1
   31    29    28	5 ;     HGPAM1      NG311      CG311
   31    29    30	5 ;     HGPAM1      NG311     CG2D1O
   28    29    30	5 ;      CG311      NG311     CG2D1O
   29    30    32	5 ;      NG311     CG2D1O     CG2DC1
   29    30    47	5 ;      NG311     CG2D1O       HGA4
   32    30    47	5 ;     CG2DC1     CG2D1O       HGA4
   30    32    33	5 ;     CG2D1O     CG2DC1     CG2DC2
   30    32    48	5 ;     CG2D1O     CG2DC1       HGA4
   33    32    48	5 ;     CG2DC2     CG2DC1       HGA4
   34    33    32	5 ;     CG2DC2     CG2DC2     CG2DC1
   34    33    49	5 ;     CG2DC2     CG2DC2       HGA4
   32    33    49	5 ;     CG2DC1     CG2DC2       HGA4
   28    34    33	5 ;      CG311     CG2DC2     CG2DC2
   28    34    35	5 ;      CG311     CG2DC2      CLGA1
   33    34    35	5 ;     CG2DC2     CG2DC2      CLGA1

[ dihedrals ]
;	ai	  aj	ak	  al funct			  c0			c1			  c2			c3			  c4			c5
    2     1    11    10	 9 ;     CG2DC1     CG2DC1     CG2DC2     CG2DC2
    2     1    11    39	 9 ;     CG2DC1     CG2DC1     CG2DC2       HGA4
   28     1    11    10	 9 ;      CG311     CG2DC1     CG2DC2     CG2DC2
   28     1    11    39	 9 ;      CG311     CG2DC1     CG2DC2       HGA4
   11     1     2     3	 9 ;     CG2DC2     CG2DC1     CG2DC1     CG2DC2
   11     1     2    36	 9 ;     CG2DC2     CG2DC1     CG2DC1       HGA4
   28     1     2     3	 9 ;      CG311     CG2DC1     CG2DC1     CG2DC2
   28     1     2    36	 9 ;      CG311     CG2DC1     CG2DC1       HGA4
   11     1    28    29	 9 ;     CG2DC2     CG2DC1      CG311      NG311
   11     1    28    34	 9 ;     CG2DC2     CG2DC1      CG311     CG2DC2
   11     1    28    63	 9 ;     CG2DC2     CG2DC1      CG311       HGA1
    2     1    28    29	 9 ;     CG2DC1     CG2DC1      CG311      NG311
    2     1    28    34	 9 ;     CG2DC1     CG2DC1      CG311     CG2DC2
    2     1    28    63	 9 ;     CG2DC1     CG2DC1      CG311       HGA1
    1     2     3     9	 9 ;     CG2DC1     CG2DC1     CG2DC2      CG311
    1     2     3     4	 9 ;     CG2DC1     CG2DC1     CG2DC2     CG2DC2
   36     2     3     9	 9 ;       HGA4     CG2DC1     CG2DC2      CG311
   36     2     3     4	 9 ;       HGA4     CG2DC1     CG2DC2     CG2DC2
    2     3     9    10	 9 ;     CG2DC1     CG2DC2      CG311     CG2DC2
    2     3     9     7	 9 ;     CG2DC1     CG2DC2      CG311      NG311
    2     3     9    62	 9 ;     CG2DC1     CG2DC2      CG311       HGA1
    4     3     9    10	 9 ;     CG2DC2     CG2DC2      CG311     CG2DC2
    4     3     9     7	 9 ;     CG2DC2     CG2DC2      CG311      NG311
    4     3     9    62	 9 ;     CG2DC2     CG2DC2      CG311       HGA1
    9     3     4     5	 9 ;      CG311     CG2DC2     CG2DC2     CG2DC1
    9     3     4    37	 9 ;      CG311     CG2DC2     CG2DC2       HGA4
    2     3     4     5	 9 ;     CG2DC1     CG2DC2     CG2DC2     CG2DC1
    2     3     4    37	 9 ;     CG2DC1     CG2DC2     CG2DC2       HGA4
    3     4     5     6	 9 ;     CG2DC2     CG2DC2     CG2DC1     CG2D1O
    3     4     5    12	 9 ;     CG2DC2     CG2DC2     CG2DC1      CG321
   37     4     5     6	 9 ;       HGA4     CG2DC2     CG2DC1     CG2D1O
   37     4     5    12	 9 ;       HGA4     CG2DC2     CG2DC1      CG321
    4     5     6     7	 9 ;     CG2DC2     CG2DC1     CG2D1O      NG311
    4     5     6    25	 9 ;     CG2DC2     CG2DC1     CG2D1O      NG321
   12     5     6     7	 9 ;      CG321     CG2DC1     CG2D1O      NG311
   12     5     6    25	 9 ;      CG321     CG2DC1     CG2D1O      NG321
    6     5    12    13	 9 ;     CG2D1O     CG2DC1      CG321      CG311
    6     5    12    40	 9 ;     CG2D1O     CG2DC1      CG321       HGA2
    6     5    12    41	 9 ;     CG2D1O     CG2DC1      CG321       HGA2
    4     5    12    13	 9 ;     CG2DC2     CG2DC1      CG321      CG311
    4     5    12    40	 9 ;     CG2DC2     CG2DC1      CG321       HGA2
    4     5    12    41	 9 ;     CG2DC2     CG2DC1      CG321       HGA2
   25     6     7     8	 9 ;      NG321     CG2D1O      NG311     HGPAM1
   25     6     7     9	 9 ;      NG321     CG2D1O      NG311      CG311
    5     6     7     8	 9 ;     CG2DC1     CG2D1O      NG311     HGPAM1
    5     6     7     9	 9 ;     CG2DC1     CG2D1O      NG311      CG311
    7     6    25    27	 9 ;      NG311     CG2D1O      NG321     HGPAM2
    7     6    25    26	 9 ;      NG311     CG2D1O      NG321     HGPAM2
    5     6    25    27	 9 ;     CG2DC1     CG2D1O      NG321     HGPAM2
    5     6    25    26	 9 ;     CG2DC1     CG2D1O      NG321     HGPAM2
    8     7     9    10	 9 ;     HGPAM1      NG311      CG311     CG2DC2
    8     7     9     3	 9 ;     HGPAM1      NG311      CG311     CG2DC2
    8     7     9    62	 9 ;     HGPAM1      NG311      CG311       HGA1
    6     7     9    10	 9 ;     CG2D1O      NG311      CG311     CG2DC2
    6     7     9     3	 9 ;     CG2D1O      NG311      CG311     CG2DC2
    6     7     9    62	 9 ;     CG2D1O      NG311      CG311       HGA1
    7     9    10    11	 9 ;      NG311      CG311     CG2DC2     CG2DC2
    7     9    10    38	 9 ;      NG311      CG311     CG2DC2       HGA4
    3     9    10    11	 9 ;     CG2DC2      CG311     CG2DC2     CG2DC2
    3     9    10    38	 9 ;     CG2DC2      CG311     CG2DC2       HGA4
   62     9    10    11	 9 ;       HGA1      CG311     CG2DC2     CG2DC2
   62     9    10    38	 9 ;       HGA1      CG311     CG2DC2       HGA4
    9    10    11     1	 9 ;      CG311     CG2DC2     CG2DC2     CG2DC1
    9    10    11    39	 9 ;      CG311     CG2DC2     CG2DC2       HGA4
   38    10    11     1	 9 ;       HGA4     CG2DC2     CG2DC2     CG2DC1
   38    10    11    39	 9 ;       HGA4     CG2DC2     CG2DC2       HGA4
    5    12    13    14	 9 ;     CG2DC1      CG321      CG311      CG331
    5    12    13    15	 9 ;     CG2DC1      CG321      CG311      CG2O1
    5    12    13    42	 9 ;     CG2DC1      CG321      CG311       HGA1
   40    12    13    14	 9 ;       HGA2      CG321      CG311      CG331
   40    12    13    15	 9 ;       HGA2      CG321      CG311      CG2O1
   40    12    13    42	 9 ;       HGA2      CG321      CG311       HGA1
   41    12    13    14	 9 ;       HGA2      CG321      CG311      CG331
   41    12    13    15	 9 ;       HGA2      CG321      CG311      CG2O1
   41    12    13    42	 9 ;       HGA2      CG321      CG311       HGA1
   12    13    14    56	 9 ;      CG321      CG311      CG331       HGA3
   12    13    14    57	 9 ;      CG321      CG311      CG331       HGA3
   12    13    14    58	 9 ;      CG321      CG311      CG331       HGA3
   15    13    14    56	 9 ;      CG2O1      CG311      CG331       HGA3
   15    13    14    57	 9 ;      CG2O1      CG311      CG331       HGA3
   15    13    14    58	 9 ;      CG2O1      CG311      CG331       HGA3
   42    13    14    56	 9 ;       HGA1      CG311      CG331       HGA3
   42    13    14    57	 9 ;       HGA1      CG311      CG331       HGA3
   42    13    14    58	 9 ;       HGA1      CG311      CG331       HGA3
   12    13    15    17	 9 ;      CG321      CG311      CG2O1      NG2S1
   12    13    15    16	 9 ;      CG321      CG311      CG2O1      OG2D1
   14    13    15    17	 9 ;      CG331      CG311      CG2O1      NG2S1
   14    13    15    16	 9 ;      CG331      CG311      CG2O1      OG2D1
   42    13    15    17	 9 ;       HGA1      CG311      CG2O1      NG2S1
   42    13    15    16	 9 ;       HGA1      CG311      CG2O1      OG2D1
   13    15    17    18	 9 ;      CG311      CG2O1      NG2S1       HGP1
   13    15    17    19	 9 ;      CG311      CG2O1      NG2S1      CG321
   16    15    17    18	 9 ;      OG2D1      CG2O1      NG2S1       HGP1
   16    15    17    19	 9 ;      OG2D1      CG2O1      NG2S1      CG321
   18    17    19    20	 9 ;       HGP1      NG2S1      CG321      CG321
   18    17    19    43	 9 ;       HGP1      NG2S1      CG321       HGA2
   18    17    19    44	 9 ;       HGP1      NG2S1      CG321       HGA2
   15    17    19    20	 9 ;      CG2O1      NG2S1      CG321      CG321
   15    17    19    43	 9 ;      CG2O1      NG2S1      CG321       HGA2
   15    17    19    44	 9 ;      CG2O1      NG2S1      CG321       HGA2
   17    19    20    21	 9 ;      NG2S1      CG321      CG321      CG301
   17    19    20    45	 9 ;      NG2S1      CG321      CG321       HGA2
   17    19    20    46	 9 ;      NG2S1      CG321      CG321       HGA2
   43    19    20    21	 9 ;       HGA2      CG321      CG321      CG301
   43    19    20    45	 9 ;       HGA2      CG321      CG321       HGA2
   43    19    20    46	 9 ;       HGA2      CG321      CG321       HGA2
   44    19    20    21	 9 ;       HGA2      CG321      CG321      CG301
   44    19    20    45	 9 ;       HGA2      CG321      CG321       HGA2
   44    19    20    46	 9 ;       HGA2      CG321      CG321       HGA2
   19    20    21    24	 9 ;      CG321      CG321      CG301      CG331
   19    20    21    22	 9 ;      CG321      CG321      CG301      CG331
   19    20    21    23	 9 ;      CG321      CG321      CG301      CG331
   45    20    21    24	 9 ;       HGA2      CG321      CG301      CG331
   45    20    21    22	 9 ;       HGA2      CG321      CG301      CG331
   45    20    21    23	 9 ;       HGA2      CG321      CG301      CG331
   46    20    21    24	 9 ;       HGA2      CG321      CG301      CG331
   46    20    21    22	 9 ;       HGA2      CG321      CG301      CG331
   46    20    21    23	 9 ;       HGA2      CG321      CG301      CG331
   22    21    24    53	 9 ;      CG331      CG301      CG331       HGA3
   22    21    24    54	 9 ;      CG331      CG301      CG331       HGA3
   22    21    24    55	 9 ;      CG331      CG301      CG331       HGA3
   20    21    24    53	 9 ;      CG321      CG301      CG331       HGA3
   20    21    24    54	 9 ;      CG321      CG301      CG331       HGA3
   20    21    24    55	 9 ;      CG321      CG301      CG331       HGA3
   23    21    24    53	 9 ;      CG331      CG301      CG331       HGA3
   23    21    24    54	 9 ;      CG331      CG301      CG331       HGA3
   23    21    24    55	 9 ;      CG331      CG301      CG331       HGA3
   24    21    22    50	 9 ;      CG331      CG301      CG331       HGA3
   24    21    22    51	 9 ;      CG331      CG301      CG331       HGA3
   24    21    22    52	 9 ;      CG331      CG301      CG331       HGA3
   20    21    22    50	 9 ;      CG321      CG301      CG331       HGA3
   20    21    22    51	 9 ;      CG321      CG301      CG331       HGA3
   20    21    22    52	 9 ;      CG321      CG301      CG331       HGA3
   23    21    22    50	 9 ;      CG331      CG301      CG331       HGA3
   23    21    22    51	 9 ;      CG331      CG301      CG331       HGA3
   23    21    22    52	 9 ;      CG331      CG301      CG331       HGA3
   24    21    23    59	 9 ;      CG331      CG301      CG331       HGA3
   24    21    23    60	 9 ;      CG331      CG301      CG331       HGA3
   24    21    23    61	 9 ;      CG331      CG301      CG331       HGA3
   22    21    23    59	 9 ;      CG331      CG301      CG331       HGA3
   22    21    23    60	 9 ;      CG331      CG301      CG331       HGA3
   22    21    23    61	 9 ;      CG331      CG301      CG331       HGA3
   20    21    23    59	 9 ;      CG321      CG301      CG331       HGA3
   20    21    23    60	 9 ;      CG321      CG301      CG331       HGA3
   20    21    23    61	 9 ;      CG321      CG301      CG331       HGA3
    1    28    29    31	 9 ;     CG2DC1      CG311      NG311     HGPAM1
    1    28    29    30	 9 ;     CG2DC1      CG311      NG311     CG2D1O
   34    28    29    31	 9 ;     CG2DC2      CG311      NG311     HGPAM1
   34    28    29    30	 9 ;     CG2DC2      CG311      NG311     CG2D1O
   63    28    29    31	 9 ;       HGA1      CG311      NG311     HGPAM1
   63    28    29    30	 9 ;       HGA1      CG311      NG311     CG2D1O
    1    28    34    33	 9 ;     CG2DC1      CG311     CG2DC2     CG2DC2
    1    28    34    35	 9 ;     CG2DC1      CG311     CG2DC2      CLGA1
   29    28    34    33	 9 ;      NG311      CG311     CG2DC2     CG2DC2
   29    28    34    35	 9 ;      NG311      CG311     CG2DC2      CLGA1
   63    28    34    33	 9 ;       HGA1      CG311     CG2DC2     CG2DC2
   63    28    34    35	 9 ;       HGA1      CG311     CG2DC2      CLGA1
   31    29    30    32	 9 ;     HGPAM1      NG311     CG2D1O     CG2DC1
   31    29    30    47	 9 ;     HGPAM1      NG311     CG2D1O       HGA4
   28    29    30    32	 9 ;      CG311      NG311     CG2D1O     CG2DC1
   28    29    30    47	 9 ;      CG311      NG311     CG2D1O       HGA4
   29    30    32    33	 9 ;      NG311     CG2D1O     CG2DC1     CG2DC2
   29    30    32    48	 9 ;      NG311     CG2D1O     CG2DC1       HGA4
   47    30    32    33	 9 ;       HGA4     CG2D1O     CG2DC1     CG2DC2
   47    30    32    48	 9 ;       HGA4     CG2D1O     CG2DC1       HGA4
   30    32    33    34	 9 ;     CG2D1O     CG2DC1     CG2DC2     CG2DC2
   30    32    33    49	 9 ;     CG2D1O     CG2DC1     CG2DC2       HGA4
   48    32    33    34	 9 ;       HGA4     CG2DC1     CG2DC2     CG2DC2
   48    32    33    49	 9 ;       HGA4     CG2DC1     CG2DC2       HGA4
   32    33    34    28	 9 ;     CG2DC1     CG2DC2     CG2DC2      CG311
   32    33    34    35	 9 ;     CG2DC1     CG2DC2     CG2DC2      CLGA1
   49    33    34    28	 9 ;       HGA4     CG2DC2     CG2DC2      CG311
   49    33    34    35	 9 ;       HGA4     CG2DC2     CG2DC2      CLGA1

[ dihedrals ]
;	ai	  aj	ak	  al funct			  c0			c1			  c2			c3
    6     5     7    25	 2
   15    13    17    16	 2
   30    32    29    47	 2

[ virtual_sites2 ]
; Site   from				funct a
   64    35    34     2   -0.164

[ exclusions ]
;	ai	  aj
   35    64
   64    34
   64    28
   64    33
   64     1
   64    29
   64    32
   64    63
   64    49

