GROup of MAchos and Cynical Suckers
   48
    1LIG     C1    1  -1.299   0.327  -1.494
    1LIG     C2    2  -1.435   0.350  -1.515
    1LIG     C3    3  -1.486   0.465  -1.578
    1LIG     C4    4  -1.400   0.573  -1.591
    1LIG     O1    5  -1.441   0.701  -1.618
    1LIG     C5    6  -1.582   0.721  -1.646
    1LIG     C6    7  -1.674   0.617  -1.572
    1LIG     C7    8  -1.633   0.477  -1.617
    1LIG     N1    9  -1.671   0.475  -1.762
    1LIG    HN3   10  -1.652   0.547  -1.832
    1LIG     C8   11  -1.735   0.364  -1.781
    1LIG     N2   12  -1.715   0.270  -1.687
    1LIG     C9   13  -1.593   0.198  -1.729
    1LIG    C10   14  -1.708   0.351  -1.574
    1LIG     O2   15  -1.764   0.330  -1.466
    1LIG    C11   16  -1.594   0.725  -1.800
    1LIG    C12   17  -1.619   0.862  -1.597
    1LIG    C13   18  -1.263   0.556  -1.567
    1LIG    C14   19  -1.212   0.432  -1.523
    1LIG     N3   20  -1.809   0.336  -1.891
    1LIG     H1   21  -1.765   0.375  -1.974
    1LIG     H2   22  -1.821   0.236  -1.902
    1LIG    C15   23  -1.256   0.194  -1.448
    1LIG     N4   24  -1.234   0.098  -1.539
    1LIG      S   25  -1.189  -0.042  -1.466
    1LIG    HN4   26  -1.245   0.110  -1.640
    1LIG    C16   27  -1.194   0.020  -1.307
    1LIG    C17   28  -1.233   0.152  -1.313
    1LIG     HC   29  -1.505   0.274  -1.482
    1LIG    HC2   30  -1.778   0.635  -1.597
    1LIG    HC3   31  -1.660   0.626  -1.464
    1LIG    HN2   32  -1.584   0.429  -1.785
    1LIG    HC1   33  -1.822   0.403  -1.729
    1LIG    HC4   34  -1.617   0.130  -1.811
    1LIG    HC5   35  -1.554   0.141  -1.645
    1LIG    HC6   36  -1.518   0.269  -1.762
    1LIG    HC7   37  -1.566   0.824  -1.836
    1LIG    HC8   38  -1.527   0.651  -1.843
    1LIG    HC9   39  -1.697   0.703  -1.829
    1LIG   HC10   40  -1.612   0.865  -1.488
    1LIG   HC11   41  -1.549   0.934  -1.639
    1LIG   HC12   42  -1.720   0.886  -1.628
    1LIG   HC13   43  -1.196   0.638  -1.582
    1LIG   HC14   44  -1.106   0.419  -1.511
    1LIG    HN1   45  -1.900   0.378  -1.880
    1LIG   HC15   46  -1.171  -0.036  -1.217
    1LIG   HC16   47  -1.245   0.216  -1.226
    1LIG    H24   48  -1.152   0.225  -1.456
   0.00000   0.00000   0.00000
