; Created by cgenff_charmm2gmx.py

[ moleculetype ]
; Name			   nrexcl
LIG				 3

[ atoms ]
;	 nr		  type	resnr residue  atom   cgnr	   charge		mass  typeB    chargeB		massB
; residue	 1 LIG rtp LIG q	qsum
     1     CG2R61      1    LIG     C1      1      0.151     12.011   ;
     2     CG2R61      1    LIG     C2      2     -0.182     12.011   ;
     3     CG2R61      1    LIG     C3      3     -0.250     12.011   ;
     4     CG2R61      1    LIG     C4      4      0.124     12.011   ;
     5     OG3R60      1    LIG     O1      5     -0.368     15.999   ;
     6      CG301      1    LIG     C5      6      0.259     12.011   ;
     7      CG321      1    LIG     C6      7     -0.251     12.011   ;
     8     CG3C50      1    LIG     C7      8      1.577     12.011   ;
     9      NG3P2      1    LIG     N1      9     -0.588     14.007   ;
    10       HGP2      1    LIG    HN3     10      0.336      1.008   ;
    11     CG3C53      1    LIG     C8     11      0.785     12.011   ;
    12     NG2R53      1    LIG     N2     12     -0.178     14.007   ;
    13      CG331      1    LIG     C9     13     -0.169     12.011   ;
    14     CG2R53      1    LIG    C10     14     -0.420     12.011   ;
    15      OG2D1      1    LIG     O2     15     -0.325     15.999   ;
    16      CG331      1    LIG    C11     16     -0.287     12.011   ;
    17      CG331      1    LIG    C12     17     -0.287     12.011   ;
    18     CG2R61      1    LIG    C13     18     -0.105     12.011   ;
    19     CG2R61      1    LIG    C14     19     -0.167     12.011   ;
    20      NG3P3      1    LIG     N3     20     -0.267     14.007   ;
    21       HGP2      1    LIG     H1     21      0.301      1.008   ;
    22       HGP2      1    LIG     H2     22      0.301      1.008   ;
    23     CG3C51      1    LIG    C15     23      0.268     12.011   ;
    24     NG3C51      1    LIG     N4     24     -0.734     14.007   ;
    25      SG311      1    LIG      S     25     -0.219     32.060   ;
    26       HGP1      1    LIG    HN4     26      0.335      1.008   ;
    27     CG2R51      1    LIG    C16     27     -0.031     12.011   ;
    28     CG2R51      1    LIG    C17     28     -0.109     12.011   ;
    29      HGR61      1    LIG     HC     29      0.116      1.008   ;
    30       HGA2      1    LIG    HC2     30      0.090      1.008   ;
    31       HGA2      1    LIG    HC3     31      0.090      1.008   ;
    32       HGP2      1    LIG    HN2     32      0.336      1.008   ;
    33       HGA1      1    LIG    HC1     33      0.073      1.008   ;
    34       HGA3      1    LIG    HC4     34      0.090      1.008   ;
    35       HGA3      1    LIG    HC5     35      0.090      1.008   ;
    36       HGA3      1    LIG    HC6     36      0.090      1.008   ;
    37       HGA3      1    LIG    HC7     37      0.090      1.008   ;
    38       HGA3      1    LIG    HC8     38      0.090      1.008   ;
    39       HGA3      1    LIG    HC9     39      0.090      1.008   ;
    40       HGA3      1    LIG   HC10     40      0.090      1.008   ;
    41       HGA3      1    LIG   HC11     41      0.090      1.008   ;
    42       HGA3      1    LIG   HC12     42      0.090      1.008   ;
    43      HGR61      1    LIG   HC13     43      0.116      1.008   ;
    44      HGR61      1    LIG   HC14     44      0.116      1.008   ;
    45       HGP2      1    LIG    HN1     45      0.301      1.008   ;
    46      HGR52      1    LIG   HC15     46      0.133      1.008   ;
    47      HGR51      1    LIG   HC16     47      0.226      1.008   ;
    48       HGA1      1    LIG    H24     48      0.093      1.008   ;

[ bonds ]
;	ai	  aj funct			  c0			c1			  c2			c3
    1    19	 1 ;      CG2R61     CG2R61
    1    23	 1 ;      CG2R61     CG3C51
    1     2	 1 ;      CG2R61     CG2R61
    2     3	 1 ;      CG2R61     CG2R61
    2    29	 1 ;      CG2R61      HGR61
    3     4	 1 ;      CG2R61     CG2R61
    3     8	 1 ;      CG2R61     CG3C50
    4    18	 1 ;      CG2R61     CG2R61
    4     5	 1 ;      CG2R61     OG3R60
    5     6	 1 ;      OG3R60      CG301
    6    16	 1 ;       CG301      CG331
    6    17	 1 ;       CG301      CG331
    6     7	 1 ;       CG301      CG321
    7     8	 1 ;       CG321     CG3C50
    7    30	 1 ;       CG321       HGA2
    7    31	 1 ;       CG321       HGA2
    8     9	 1 ;      CG3C50      NG3P2
    8    14	 1 ;      CG3C50     CG2R53
    9    10	 1 ;       NG3P2       HGP2
    9    11	 1 ;       NG3P2     CG3C53
    9    32	 1 ;       NG3P2       HGP2
   11    20	 1 ;      CG3C53      NG3P3
   11    12	 1 ;      CG3C53     NG2R53
   11    33	 1 ;      CG3C53       HGA1
   12    13	 1 ;      NG2R53      CG331
   12    14	 1 ;      NG2R53     CG2R53
   13    34	 1 ;       CG331       HGA3
   13    35	 1 ;       CG331       HGA3
   13    36	 1 ;       CG331       HGA3
   14    15	 1 ;      CG2R53      OG2D1
   16    37	 1 ;       CG331       HGA3
   16    38	 1 ;       CG331       HGA3
   16    39	 1 ;       CG331       HGA3
   17    40	 1 ;       CG331       HGA3
   17    41	 1 ;       CG331       HGA3
   17    42	 1 ;       CG331       HGA3
   18    19	 1 ;      CG2R61     CG2R61
   18    43	 1 ;      CG2R61      HGR61
   19    44	 1 ;      CG2R61      HGR61
   20    21	 1 ;       NG3P3       HGP2
   20    22	 1 ;       NG3P3       HGP2
   20    45	 1 ;       NG3P3       HGP2
   23    24	 1 ;      CG3C51     NG3C51
   23    28	 1 ;      CG3C51     CG2R51
   23    48	 1 ;      CG3C51       HGA1
   24    26	 1 ;      NG3C51       HGP1
   24    25	 1 ;      NG3C51      SG311
   25    27	 1 ;       SG311     CG2R51
   27    28	 1 ;      CG2R51     CG2R51
   27    46	 1 ;      CG2R51      HGR52
   28    47	 1 ;      CG2R51      HGR51

[ pairs ]
;	ai	  aj funct			  c0			c1			  c2			c3
    1     4	 1
    1     8	 1
    1    43	 1
    1    26	 1
    1    25	 1
    1    27	 1
    1    47	 1
    2    18	 1
    2    44	 1
    2    24	 1
    2    28	 1
    2    48	 1
    2     5	 1
    2     9	 1
    2     7	 1
    2    14	 1
    3    19	 1
    3    23	 1
    3    43	 1
    3     6	 1
    3    30	 1
    3    31	 1
    3    10	 1
    3    11	 1
    3    32	 1
    3    12	 1
    3    15	 1
    4    29	 1
    4     9	 1
    4     7	 1
    4    14	 1
    4    16	 1
    4    17	 1
    4    44	 1
    5     8	 1
    5    19	 1
    5    43	 1
    5    37	 1
    5    38	 1
    5    39	 1
    5    40	 1
    5    41	 1
    5    42	 1
    5    30	 1
    5    31	 1
    6    18	 1
    6     9	 1
    6    14	 1
    7    37	 1
    7    38	 1
    7    39	 1
    7    40	 1
    7    41	 1
    7    42	 1
    7    10	 1
    7    11	 1
    7    32	 1
    7    12	 1
    7    15	 1
    8    29	 1
    8    18	 1
    8    16	 1
    8    17	 1
    8    20	 1
    8    33	 1
    8    13	 1
    9    30	 1
    9    31	 1
    9    15	 1
    9    21	 1
    9    22	 1
    9    45	 1
    9    13	 1
   10    14	 1
   10    20	 1
   10    12	 1
   10    33	 1
   11    34	 1
   11    35	 1
   11    36	 1
   11    15	 1
   12    32	 1
   12    21	 1
   12    22	 1
   12    45	 1
   13    20	 1
   13    33	 1
   13    15	 1
   14    30	 1
   14    31	 1
   14    32	 1
   14    20	 1
   14    33	 1
   14    34	 1
   14    35	 1
   14    36	 1
   16    40	 1
   16    41	 1
   16    42	 1
   16    30	 1
   16    31	 1
   17    37	 1
   17    38	 1
   17    39	 1
   17    30	 1
   17    31	 1
   18    23	 1
   19    24	 1
   19    28	 1
   19    48	 1
   19    29	 1
   20    32	 1
   21    33	 1
   22    33	 1
   23    44	 1
   23    29	 1
   23    46	 1
   24    47	 1
   24    46	 1
   25    48	 1
   25    47	 1
   26    28	 1
   26    48	 1
   26    27	 1
   27    48	 1
   32    33	 1
   33    45	 1
   43    44	 1
   46    47	 1
   47    48	 1

[ angles ]
;	ai	  aj	ak funct			c0			  c1			c2			  c3
   19     1    23	5 ;     CG2R61     CG2R61     CG3C51
   19     1     2	5 ;     CG2R61     CG2R61     CG2R61
   23     1     2	5 ;     CG3C51     CG2R61     CG2R61
    1     2     3	5 ;     CG2R61     CG2R61     CG2R61
    1     2    29	5 ;     CG2R61     CG2R61      HGR61
    3     2    29	5 ;     CG2R61     CG2R61      HGR61
    4     3     2	5 ;     CG2R61     CG2R61     CG2R61
    4     3     8	5 ;     CG2R61     CG2R61     CG3C50
    2     3     8	5 ;     CG2R61     CG2R61     CG3C50
   18     4     5	5 ;     CG2R61     CG2R61     OG3R60
   18     4     3	5 ;     CG2R61     CG2R61     CG2R61
    5     4     3	5 ;     OG3R60     CG2R61     CG2R61
    4     5     6	5 ;     CG2R61     OG3R60      CG301
    5     6    16	5 ;     OG3R60      CG301      CG331
    5     6    17	5 ;     OG3R60      CG301      CG331
    5     6     7	5 ;     OG3R60      CG301      CG321
   16     6    17	5 ;      CG331      CG301      CG331
   16     6     7	5 ;      CG331      CG301      CG321
   17     6     7	5 ;      CG331      CG301      CG321
    6     7     8	5 ;      CG301      CG321     CG3C50
    6     7    30	5 ;      CG301      CG321       HGA2
    6     7    31	5 ;      CG301      CG321       HGA2
    8     7    30	5 ;     CG3C50      CG321       HGA2
    8     7    31	5 ;     CG3C50      CG321       HGA2
   30     7    31	5 ;       HGA2      CG321       HGA2
    3     8     9	5 ;     CG2R61     CG3C50      NG3P2
    3     8     7	5 ;     CG2R61     CG3C50      CG321
    3     8    14	5 ;     CG2R61     CG3C50     CG2R53
    9     8     7	5 ;      NG3P2     CG3C50      CG321
    9     8    14	5 ;      NG3P2     CG3C50     CG2R53
    7     8    14	5 ;      CG321     CG3C50     CG2R53
   10     9     8	5 ;       HGP2      NG3P2     CG3C50
   10     9    11	5 ;       HGP2      NG3P2     CG3C53
   10     9    32	5 ;       HGP2      NG3P2       HGP2
    8     9    11	5 ;     CG3C50      NG3P2     CG3C53
    8     9    32	5 ;     CG3C50      NG3P2       HGP2
   11     9    32	5 ;     CG3C53      NG3P2       HGP2
    9    11    20	5 ;      NG3P2     CG3C53      NG3P3
    9    11    12	5 ;      NG3P2     CG3C53     NG2R53
    9    11    33	5 ;      NG3P2     CG3C53       HGA1
   20    11    12	5 ;      NG3P3     CG3C53     NG2R53
   20    11    33	5 ;      NG3P3     CG3C53       HGA1
   12    11    33	5 ;     NG2R53     CG3C53       HGA1
   13    12    11	5 ;      CG331     NG2R53     CG3C53
   13    12    14	5 ;      CG331     NG2R53     CG2R53
   11    12    14	5 ;     CG3C53     NG2R53     CG2R53
   12    13    34	5 ;     NG2R53      CG331       HGA3
   12    13    35	5 ;     NG2R53      CG331       HGA3
   12    13    36	5 ;     NG2R53      CG331       HGA3
   34    13    35	5 ;       HGA3      CG331       HGA3
   34    13    36	5 ;       HGA3      CG331       HGA3
   35    13    36	5 ;       HGA3      CG331       HGA3
    8    14    12	5 ;     CG3C50     CG2R53     NG2R53
    8    14    15	5 ;     CG3C50     CG2R53      OG2D1
   12    14    15	5 ;     NG2R53     CG2R53      OG2D1
    6    16    37	5 ;      CG301      CG331       HGA3
    6    16    38	5 ;      CG301      CG331       HGA3
    6    16    39	5 ;      CG301      CG331       HGA3
   37    16    38	5 ;       HGA3      CG331       HGA3
   37    16    39	5 ;       HGA3      CG331       HGA3
   38    16    39	5 ;       HGA3      CG331       HGA3
    6    17    40	5 ;      CG301      CG331       HGA3
    6    17    41	5 ;      CG301      CG331       HGA3
    6    17    42	5 ;      CG301      CG331       HGA3
   40    17    41	5 ;       HGA3      CG331       HGA3
   40    17    42	5 ;       HGA3      CG331       HGA3
   41    17    42	5 ;       HGA3      CG331       HGA3
   19    18     4	5 ;     CG2R61     CG2R61     CG2R61
   19    18    43	5 ;     CG2R61     CG2R61      HGR61
    4    18    43	5 ;     CG2R61     CG2R61      HGR61
   18    19     1	5 ;     CG2R61     CG2R61     CG2R61
   18    19    44	5 ;     CG2R61     CG2R61      HGR61
    1    19    44	5 ;     CG2R61     CG2R61      HGR61
   21    20    11	5 ;       HGP2      NG3P3     CG3C53
   21    20    22	5 ;       HGP2      NG3P3       HGP2
   21    20    45	5 ;       HGP2      NG3P3       HGP2
   11    20    22	5 ;     CG3C53      NG3P3       HGP2
   11    20    45	5 ;     CG3C53      NG3P3       HGP2
   22    20    45	5 ;       HGP2      NG3P3       HGP2
   24    23     1	5 ;     NG3C51     CG3C51     CG2R61
   24    23    28	5 ;     NG3C51     CG3C51     CG2R51
   24    23    48	5 ;     NG3C51     CG3C51       HGA1
    1    23    28	5 ;     CG2R61     CG3C51     CG2R51
    1    23    48	5 ;     CG2R61     CG3C51       HGA1
   28    23    48	5 ;     CG2R51     CG3C51       HGA1
   26    24    25	5 ;       HGP1     NG3C51      SG311
   26    24    23	5 ;       HGP1     NG3C51     CG3C51
   25    24    23	5 ;      SG311     NG3C51     CG3C51
   24    25    27	5 ;     NG3C51      SG311     CG2R51
   25    27    28	5 ;      SG311     CG2R51     CG2R51
   25    27    46	5 ;      SG311     CG2R51      HGR52
   28    27    46	5 ;     CG2R51     CG2R51      HGR52
   23    28    27	5 ;     CG3C51     CG2R51     CG2R51
   23    28    47	5 ;     CG3C51     CG2R51      HGR51
   27    28    47	5 ;     CG2R51     CG2R51      HGR51

[ dihedrals ]
;	ai	  aj	ak	  al funct			  c0			c1			  c2			c3			  c4			c5
   23     1    19    18	 9 ;     CG3C51     CG2R61     CG2R61     CG2R61
   23     1    19    44	 9 ;     CG3C51     CG2R61     CG2R61      HGR61
    2     1    19    18	 9 ;     CG2R61     CG2R61     CG2R61     CG2R61
    2     1    19    44	 9 ;     CG2R61     CG2R61     CG2R61      HGR61
   19     1    23    24	 9 ;     CG2R61     CG2R61     CG3C51     NG3C51
   19     1    23    28	 9 ;     CG2R61     CG2R61     CG3C51     CG2R51
   19     1    23    48	 9 ;     CG2R61     CG2R61     CG3C51       HGA1
    2     1    23    24	 9 ;     CG2R61     CG2R61     CG3C51     NG3C51
    2     1    23    28	 9 ;     CG2R61     CG2R61     CG3C51     CG2R51
    2     1    23    48	 9 ;     CG2R61     CG2R61     CG3C51       HGA1
   19     1     2     3	 9 ;     CG2R61     CG2R61     CG2R61     CG2R61
   19     1     2    29	 9 ;     CG2R61     CG2R61     CG2R61      HGR61
   23     1     2     3	 9 ;     CG3C51     CG2R61     CG2R61     CG2R61
   23     1     2    29	 9 ;     CG3C51     CG2R61     CG2R61      HGR61
    1     2     3     4	 9 ;     CG2R61     CG2R61     CG2R61     CG2R61
    1     2     3     8	 9 ;     CG2R61     CG2R61     CG2R61     CG3C50
   29     2     3     4	 9 ;      HGR61     CG2R61     CG2R61     CG2R61
   29     2     3     8	 9 ;      HGR61     CG2R61     CG2R61     CG3C50
    2     3     4    18	 9 ;     CG2R61     CG2R61     CG2R61     CG2R61
    2     3     4     5	 9 ;     CG2R61     CG2R61     CG2R61     OG3R60
    8     3     4    18	 9 ;     CG3C50     CG2R61     CG2R61     CG2R61
    8     3     4     5	 9 ;     CG3C50     CG2R61     CG2R61     OG3R60
    4     3     8     9	 9 ;     CG2R61     CG2R61     CG3C50      NG3P2
    4     3     8     7	 9 ;     CG2R61     CG2R61     CG3C50      CG321
    4     3     8    14	 9 ;     CG2R61     CG2R61     CG3C50     CG2R53
    2     3     8     9	 9 ;     CG2R61     CG2R61     CG3C50      NG3P2
    2     3     8     7	 9 ;     CG2R61     CG2R61     CG3C50      CG321
    2     3     8    14	 9 ;     CG2R61     CG2R61     CG3C50     CG2R53
    5     4    18    19	 9 ;     OG3R60     CG2R61     CG2R61     CG2R61
    5     4    18    43	 9 ;     OG3R60     CG2R61     CG2R61      HGR61
    3     4    18    19	 9 ;     CG2R61     CG2R61     CG2R61     CG2R61
    3     4    18    43	 9 ;     CG2R61     CG2R61     CG2R61      HGR61
   18     4     5     6	 9 ;     CG2R61     CG2R61     OG3R60      CG301
    3     4     5     6	 9 ;     CG2R61     CG2R61     OG3R60      CG301
    4     5     6    16	 9 ;     CG2R61     OG3R60      CG301      CG331
    4     5     6    17	 9 ;     CG2R61     OG3R60      CG301      CG331
    4     5     6     7	 9 ;     CG2R61     OG3R60      CG301      CG321
    5     6    16    37	 9 ;     OG3R60      CG301      CG331       HGA3
    5     6    16    38	 9 ;     OG3R60      CG301      CG331       HGA3
    5     6    16    39	 9 ;     OG3R60      CG301      CG331       HGA3
   17     6    16    37	 9 ;      CG331      CG301      CG331       HGA3
   17     6    16    38	 9 ;      CG331      CG301      CG331       HGA3
   17     6    16    39	 9 ;      CG331      CG301      CG331       HGA3
    7     6    16    37	 9 ;      CG321      CG301      CG331       HGA3
    7     6    16    38	 9 ;      CG321      CG301      CG331       HGA3
    7     6    16    39	 9 ;      CG321      CG301      CG331       HGA3
    5     6    17    40	 9 ;     OG3R60      CG301      CG331       HGA3
    5     6    17    41	 9 ;     OG3R60      CG301      CG331       HGA3
    5     6    17    42	 9 ;     OG3R60      CG301      CG331       HGA3
   16     6    17    40	 9 ;      CG331      CG301      CG331       HGA3
   16     6    17    41	 9 ;      CG331      CG301      CG331       HGA3
   16     6    17    42	 9 ;      CG331      CG301      CG331       HGA3
    7     6    17    40	 9 ;      CG321      CG301      CG331       HGA3
    7     6    17    41	 9 ;      CG321      CG301      CG331       HGA3
    7     6    17    42	 9 ;      CG321      CG301      CG331       HGA3
    5     6     7     8	 9 ;     OG3R60      CG301      CG321     CG3C50
    5     6     7    30	 9 ;     OG3R60      CG301      CG321       HGA2
    5     6     7    31	 9 ;     OG3R60      CG301      CG321       HGA2
   16     6     7     8	 9 ;      CG331      CG301      CG321     CG3C50
   16     6     7    30	 9 ;      CG331      CG301      CG321       HGA2
   16     6     7    31	 9 ;      CG331      CG301      CG321       HGA2
   17     6     7     8	 9 ;      CG331      CG301      CG321     CG3C50
   17     6     7    30	 9 ;      CG331      CG301      CG321       HGA2
   17     6     7    31	 9 ;      CG331      CG301      CG321       HGA2
    6     7     8     3	 9 ;      CG301      CG321     CG3C50     CG2R61
    6     7     8     9	 9 ;      CG301      CG321     CG3C50      NG3P2
    6     7     8    14	 9 ;      CG301      CG321     CG3C50     CG2R53
   30     7     8     3	 9 ;       HGA2      CG321     CG3C50     CG2R61
   30     7     8     9	 9 ;       HGA2      CG321     CG3C50      NG3P2
   30     7     8    14	 9 ;       HGA2      CG321     CG3C50     CG2R53
   31     7     8     3	 9 ;       HGA2      CG321     CG3C50     CG2R61
   31     7     8     9	 9 ;       HGA2      CG321     CG3C50      NG3P2
   31     7     8    14	 9 ;       HGA2      CG321     CG3C50     CG2R53
    3     8     9    10	 9 ;     CG2R61     CG3C50      NG3P2       HGP2
    3     8     9    11	 9 ;     CG2R61     CG3C50      NG3P2     CG3C53
    3     8     9    32	 9 ;     CG2R61     CG3C50      NG3P2       HGP2
    7     8     9    10	 9 ;      CG321     CG3C50      NG3P2       HGP2
    7     8     9    11	 9 ;      CG321     CG3C50      NG3P2     CG3C53
    7     8     9    32	 9 ;      CG321     CG3C50      NG3P2       HGP2
   14     8     9    10	 9 ;     CG2R53     CG3C50      NG3P2       HGP2
   14     8     9    11	 9 ;     CG2R53     CG3C50      NG3P2     CG3C53
   14     8     9    32	 9 ;     CG2R53     CG3C50      NG3P2       HGP2
    3     8    14    12	 9 ;     CG2R61     CG3C50     CG2R53     NG2R53
    3     8    14    15	 9 ;     CG2R61     CG3C50     CG2R53      OG2D1
    9     8    14    12	 9 ;      NG3P2     CG3C50     CG2R53     NG2R53
    9     8    14    15	 9 ;      NG3P2     CG3C50     CG2R53      OG2D1
    7     8    14    12	 9 ;      CG321     CG3C50     CG2R53     NG2R53
    7     8    14    15	 9 ;      CG321     CG3C50     CG2R53      OG2D1
   10     9    11    20	 9 ;       HGP2      NG3P2     CG3C53      NG3P3
   10     9    11    12	 9 ;       HGP2      NG3P2     CG3C53     NG2R53
   10     9    11    33	 9 ;       HGP2      NG3P2     CG3C53       HGA1
    8     9    11    20	 9 ;     CG3C50      NG3P2     CG3C53      NG3P3
    8     9    11    12	 9 ;     CG3C50      NG3P2     CG3C53     NG2R53
    8     9    11    33	 9 ;     CG3C50      NG3P2     CG3C53       HGA1
   32     9    11    20	 9 ;       HGP2      NG3P2     CG3C53      NG3P3
   32     9    11    12	 9 ;       HGP2      NG3P2     CG3C53     NG2R53
   32     9    11    33	 9 ;       HGP2      NG3P2     CG3C53       HGA1
    9    11    20    21	 9 ;      NG3P2     CG3C53      NG3P3       HGP2
    9    11    20    22	 9 ;      NG3P2     CG3C53      NG3P3       HGP2
    9    11    20    45	 9 ;      NG3P2     CG3C53      NG3P3       HGP2
   12    11    20    21	 9 ;     NG2R53     CG3C53      NG3P3       HGP2
   12    11    20    22	 9 ;     NG2R53     CG3C53      NG3P3       HGP2
   12    11    20    45	 9 ;     NG2R53     CG3C53      NG3P3       HGP2
   33    11    20    21	 9 ;       HGA1     CG3C53      NG3P3       HGP2
   33    11    20    22	 9 ;       HGA1     CG3C53      NG3P3       HGP2
   33    11    20    45	 9 ;       HGA1     CG3C53      NG3P3       HGP2
    9    11    12    13	 9 ;      NG3P2     CG3C53     NG2R53      CG331
    9    11    12    14	 9 ;      NG3P2     CG3C53     NG2R53     CG2R53
   20    11    12    13	 9 ;      NG3P3     CG3C53     NG2R53      CG331
   20    11    12    14	 9 ;      NG3P3     CG3C53     NG2R53     CG2R53
   33    11    12    13	 9 ;       HGA1     CG3C53     NG2R53      CG331
   33    11    12    14	 9 ;       HGA1     CG3C53     NG2R53     CG2R53
   11    12    13    34	 9 ;     CG3C53     NG2R53      CG331       HGA3
   11    12    13    35	 9 ;     CG3C53     NG2R53      CG331       HGA3
   11    12    13    36	 9 ;     CG3C53     NG2R53      CG331       HGA3
   14    12    13    34	 9 ;     CG2R53     NG2R53      CG331       HGA3
   14    12    13    35	 9 ;     CG2R53     NG2R53      CG331       HGA3
   14    12    13    36	 9 ;     CG2R53     NG2R53      CG331       HGA3
   13    12    14     8	 9 ;      CG331     NG2R53     CG2R53     CG3C50
   13    12    14    15	 9 ;      CG331     NG2R53     CG2R53      OG2D1
   11    12    14     8	 9 ;     CG3C53     NG2R53     CG2R53     CG3C50
   11    12    14    15	 9 ;     CG3C53     NG2R53     CG2R53      OG2D1
    4    18    19     1	 9 ;     CG2R61     CG2R61     CG2R61     CG2R61
    4    18    19    44	 9 ;     CG2R61     CG2R61     CG2R61      HGR61
   43    18    19     1	 9 ;      HGR61     CG2R61     CG2R61     CG2R61
   43    18    19    44	 9 ;      HGR61     CG2R61     CG2R61      HGR61
    1    23    24    26	 9 ;     CG2R61     CG3C51     NG3C51       HGP1
    1    23    24    25	 9 ;     CG2R61     CG3C51     NG3C51      SG311
   28    23    24    26	 9 ;     CG2R51     CG3C51     NG3C51       HGP1
   28    23    24    25	 9 ;     CG2R51     CG3C51     NG3C51      SG311
   48    23    24    26	 9 ;       HGA1     CG3C51     NG3C51       HGP1
   48    23    24    25	 9 ;       HGA1     CG3C51     NG3C51      SG311
   24    23    28    27	 9 ;     NG3C51     CG3C51     CG2R51     CG2R51
   24    23    28    47	 9 ;     NG3C51     CG3C51     CG2R51      HGR51
    1    23    28    27	 9 ;     CG2R61     CG3C51     CG2R51     CG2R51
    1    23    28    47	 9 ;     CG2R61     CG3C51     CG2R51      HGR51
   48    23    28    27	 9 ;       HGA1     CG3C51     CG2R51     CG2R51
   48    23    28    47	 9 ;       HGA1     CG3C51     CG2R51      HGR51
   26    24    25    27	 9 ;       HGP1     NG3C51      SG311     CG2R51
   23    24    25    27	 9 ;     CG3C51     NG3C51      SG311     CG2R51
   24    25    27    28	 9 ;     NG3C51      SG311     CG2R51     CG2R51
   24    25    27    46	 9 ;     NG3C51      SG311     CG2R51      HGR52
   25    27    28    23	 9 ;      SG311     CG2R51     CG2R51     CG3C51
   25    27    28    47	 9 ;      SG311     CG2R51     CG2R51      HGR51
   46    27    28    23	 9 ;      HGR52     CG2R51     CG2R51     CG3C51
   46    27    28    47	 9 ;      HGR52     CG2R51     CG2R51      HGR51

[ dihedrals ]
;	ai	  aj	ak	  al funct			  c0			c1			  c2			c3
   14     8    12    15	 2

