Great Red Oystrich Makes All Chemists Sane
   77
    1LIG     N1    1  -1.389   0.595  -1.561
    1LIG     H1    2  -1.439   0.642  -1.484
    1LIG     H2    3  -1.453   0.606  -1.641
    1LIG     C1    4  -1.266   0.681  -1.589
    1LIG     C2    5  -1.302   0.778  -1.705
    1LIG     O1    6  -1.249   0.719  -1.825
    1LIG     H3    7  -1.199   0.638  -1.802
    1LIG     C3    8  -1.453   0.815  -1.714
    1LIG     N2    9  -1.471   0.958  -1.686
    1LIG     C4   10  -1.592   1.011  -1.648
    1LIG     O2   11  -1.687   0.941  -1.616
    1LIG     C5   12  -1.592   1.162  -1.640
    1LIG     H4   13  -1.401   1.023  -1.722
    1LIG     C6   14  -1.512   0.782  -1.855
    1LIG     C7   15  -1.596   0.656  -1.862
    1LIG     C8   16  -1.539   0.534  -1.902
    1LIG     C9   17  -1.617   0.418  -1.911
    1LIG     F1   18  -1.560   0.304  -1.951
    1LIG    C10   19  -1.752   0.420  -1.878
    1LIG    C11   20  -1.808   0.540  -1.835
    1LIG    C12   21  -1.731   0.657  -1.826
    1LIG     F2   22  -1.937   0.543  -1.801
    1LIG    C13   23  -1.380   0.445  -1.533
    1LIG    C14   24  -1.311   0.423  -1.396
    1LIG    C15   25  -1.292   0.273  -1.367
    1LIG    C16   26  -1.211   0.201  -1.477
    1LIG    C17   27  -1.257   0.234  -1.619
    1LIG    C18   28  -1.289   0.382  -1.642
    1LIG     N3   29  -1.219   0.057  -1.457
    1LIG     H5   30  -1.183  -0.008  -1.526
    1LIG    C19   31  -1.297   0.002  -1.357
    1LIG     O3   32  -1.379  -0.088  -1.373
    1LIG    C20   33  -1.526   0.392  -1.532
    1LIG    C21   34  -1.630   0.468  -1.470
    1LIG    C22   35  -1.766   0.430  -1.474
    1LIG    C23   36  -1.796   0.305  -1.532
    1LIG    C24   37  -1.697   0.228  -1.591
    1LIG    C25   38  -1.565   0.273  -1.595
    1LIG    C26   39  -1.881   0.522  -1.431
    1LIG    C27   40  -1.898   0.532  -1.278
    1LIG    C28   41  -1.848   0.665  -1.482
    1LIG    C29   42  -2.017   0.478  -1.489
    1LIG    HC2   43  -1.182   0.618  -1.618
    1LIG    HC3   44  -1.240   0.739  -1.500
    1LIG     HC   45  -1.247   0.870  -1.688
    1LIG    HC1   46  -1.508   0.757  -1.639
    1LIG    HC4   47  -1.574   0.866  -1.886
    1LIG    HC5   48  -1.429   0.773  -1.925
    1LIG    HC6   49  -1.434   0.530  -1.927
    1LIG    HC7   50  -1.812   0.331  -1.887
    1LIG    HC8   51  -1.777   0.748  -1.791
    1LIG    HC9   52  -1.214   0.472  -1.398
    1LIG   HC10   53  -1.372   0.467  -1.318
    1LIG   HC11   54  -1.390   0.226  -1.360
    1LIG   HC12   55  -1.240   0.262  -1.272
    1LIG   HC13   56  -1.107   0.231  -1.467
    1LIG   HC14   57  -1.346   0.176  -1.640
    1LIG   HC15   58  -1.178   0.204  -1.688
    1LIG   HC16   59  -1.196   0.438  -1.644
    1LIG   HC17   60  -1.338   0.392  -1.738
    1LIG   HC18   61  -1.286   0.042  -1.258
    1LIG   HC19   62  -1.603   0.559  -1.419
    1LIG   HC20   63  -1.898   0.269  -1.530
    1LIG   HC21   64  -1.722   0.132  -1.634
    1LIG   HC22   65  -1.491   0.215  -1.647
    1LIG   HC23   66  -1.921   0.433  -1.237
    1LIG   HC24   67  -1.805   0.569  -1.233
    1LIG   HC25   68  -1.979   0.601  -1.254
    1LIG   HC26   69  -2.093   0.553  -1.466
    1LIG   HC27   70  -2.008   0.468  -1.597
    1LIG   HC28   71  -2.046   0.382  -1.446
    1LIG   HC29   72  -1.836   0.662  -1.591
    1LIG   HC30   73  -1.930   0.732  -1.457
    1LIG   HC31   74  -1.756   0.700  -1.436
    1LIG   HC32   75  -1.691   1.196  -1.610
    1LIG   HC33   76  -1.518   1.194  -1.567
    1LIG   HC34   77  -1.567   1.203  -1.738
   0.00000   0.00000   0.00000
