Good gRace! Old Maple Actually Chews Slate
   60
    1LIG     C1    1  -1.253   0.446  -1.662
    1LIG     N1    2  -1.272   0.339  -1.572
    1LIG     C2    3  -1.168   0.246  -1.585
    1LIG     C3    4  -1.093   0.288  -1.694
    1LIG     C4    5  -1.145   0.409  -1.741
    1LIG     C5    6  -1.334   0.569  -1.676
    1LIG     C6    7  -1.317   0.680  -1.592
    1LIG     C7    8  -1.403   0.790  -1.600
    1LIG     C8    9  -1.504   0.795  -1.697
    1LIG     C9   10  -1.513   0.692  -1.791
    1LIG    C10   11  -1.429   0.579  -1.779
    1LIG    C11   12  -1.600   0.909  -1.693
    1LIG      O   13  -1.639   0.952  -1.585
    1LIG     N2   14  -1.647   0.955  -1.814
    1LIG     H1   15  -1.618   0.906  -1.898
    1LIG    C12   16  -1.760   1.049  -1.822
    1LIG    C13   17  -1.900   0.982  -1.824
    1LIG    C14   18  -1.942   1.092  -1.924
    1LIG    C15   19  -1.793   1.101  -1.964
    1LIG    C16   20  -1.388   0.324  -1.482
    1LIG    C17   21  -1.522   0.304  -1.549
    1LIG     N3   22  -1.628   0.375  -1.500
    1LIG    C18   23  -1.744   0.370  -1.568
    1LIG     HN   24  -1.619   0.430  -1.415
    1LIG    C19   25  -1.758   0.302  -1.688
    1LIG    C20   26  -1.651   0.226  -1.735
    1LIG    C21   27  -1.532   0.227  -1.664
    1LIG     N4   28  -1.852   0.441  -1.516
    1LIG     H2   29  -1.825   0.475  -1.424
    1LIG     H3   30  -1.935   0.382  -1.512
    1LIG    C22   31  -1.148   0.124  -1.505
    1LIG    C23   32  -1.221   0.008  -1.536
    1LIG    C24   33  -1.203  -0.111  -1.464
    1LIG    C25   34  -1.112  -0.115  -1.358
    1LIG    C26   35  -1.038  -0.001  -1.327
    1LIG    C27   36  -1.054   0.116  -1.401
    1LIG     HC   37  -1.009   0.235  -1.735
    1LIG    HC1   38  -1.107   0.465  -1.825
    1LIG    HC2   39  -1.237   0.680  -1.520
    1LIG    HC3   40  -1.391   0.872  -1.532
    1LIG    HC4   41  -1.584   0.698  -1.872
    1LIG    HC5   42  -1.438   0.499  -1.851
    1LIG    HC6   43  -1.753   1.129  -1.748
    1LIG    HC7   44  -1.953   0.984  -1.729
    1LIG    HC8   45  -1.898   0.882  -1.869
    1LIG    HC9   46  -2.009   1.058  -2.004
    1LIG   HC10   47  -1.978   1.182  -1.875
    1LIG   HC11   48  -1.758   1.202  -1.985
    1LIG   HC12   49  -1.766   1.030  -2.042
    1LIG   HC13   50  -1.395   0.414  -1.421
    1LIG   HC14   51  -1.370   0.240  -1.416
    1LIG   HC15   52  -1.850   0.307  -1.743
    1LIG   HC16   53  -1.661   0.169  -1.826
    1LIG   HC17   54  -1.448   0.168  -1.698
    1LIG   HC18   55  -1.293   0.010  -1.616
    1LIG   HC19   56  -1.259  -0.199  -1.490
    1LIG   HC20   57  -1.099  -0.206  -1.302
    1LIG   HC21   58  -0.969  -0.003  -1.244
    1LIG   HC22   59  -0.993   0.202  -1.378
    1LIG    H28   60  -1.545   0.218  -1.486
   0.00000   0.00000   0.00000
