; Created by cgenff_charmm2gmx.py

[ moleculetype ]
; Name			   nrexcl
LIG				 3

[ atoms ]
;	 nr		  type	resnr residue  atom   cgnr	   charge		mass  typeB    chargeB		massB
; residue	 1 LIG rtp LIG q	qsum
     1     CG3C31      1    LIG     C1      1     -0.058     12.011   ;
     2     CG3C31      1    LIG     C2      2     -0.180     12.011   ;
     3     CG3C31      1    LIG     C3      3     -0.027     12.011   ;
     4     CG2R61      1    LIG     C4      4     -0.043     12.011   ;
     5     CG2R61      1    LIG     C5      5     -0.114     12.011   ;
     6     CG2R67      1    LIG     C6      6      0.020     12.011   ;
     7     CG2R61      1    LIG     C7      7     -0.119     12.011   ;
     8     CG2R61      1    LIG     C8      8     -0.119     12.011   ;
     9     CG2R61      1    LIG     C9      9     -0.107     12.011   ;
    10     CG2R67      1    LIG    C10     10     -0.012     12.011   ;
    11     CG2R61      1    LIG    C11     11     -0.120     12.011   ;
    12     CG2R61      1    LIG    C12     12     -0.119     12.011   ;
    13     CG2R61      1    LIG    C13     13     -0.107     12.011   ;
    14     CG2R61      1    LIG    C14     14     -0.124     12.011   ;
    15     CG2R61      1    LIG    C15     15      0.207     12.011   ;
    16      OG301      1    LIG     O1     16     -0.382     15.999   ;
    17      CG331      1    LIG    C16     17     -0.094     12.011   ;
    18      CG301      1    LIG    C17     18      0.511     12.011   ;
    19      NG3P2      1    LIG     N1     19     -0.591     14.007   ;
    20      CG314      1    LIG    C18     20      0.982     12.011   ;
    21       HGP2      1    LIG     HN     21      0.345      1.008   ;
    22      NG2S0      1    LIG     N2     22     -0.207     14.007   ;
    23      CG331      1    LIG    C19     23     -0.218     12.011   ;
    24      CG2O1      1    LIG    C20     24      0.530     12.011   ;
    25      OG2D1      1    LIG     O2     25     -0.542     15.999   ;
    26      CG321      1    LIG    C21     26     -0.311     12.011   ;
    27      CG331      1    LIG    C22     27     -0.293     12.011   ;
    28      NG3P3      1    LIG     N3     28     -0.360     14.007   ;
    29       HGP2      1    LIG     H1     29      0.313      1.008   ;
    30       HGP2      1    LIG     H2     30      0.313      1.008   ;
    31       HGA1      1    LIG     HC     31      0.090      1.008   ;
    32       HGA2      1    LIG    HC2     32      0.090      1.008   ;
    33       HGA2      1    LIG    HC3     33      0.090      1.008   ;
    34       HGA1      1    LIG    HC1     34      0.090      1.008   ;
    35      HGR61      1    LIG    HC4     35      0.116      1.008   ;
    36      HGR61      1    LIG    HC5     36      0.116      1.008   ;
    37      HGR61      1    LIG    HC6     37      0.116      1.008   ;
    38      HGR61      1    LIG    HC7     38      0.116      1.008   ;
    39      HGR61      1    LIG    HC8     39      0.116      1.008   ;
    40      HGR61      1    LIG    HC9     40      0.116      1.008   ;
    41      HGR61      1    LIG   HC10     41      0.116      1.008   ;
    42      HGR61      1    LIG   HC11     42      0.116      1.008   ;
    43       HGA3      1    LIG   HC12     43      0.090      1.008   ;
    44       HGA3      1    LIG   HC13     44      0.090      1.008   ;
    45       HGA3      1    LIG   HC14     45      0.090      1.008   ;
    46       HGP2      1    LIG    HN2     46      0.345      1.008   ;
    47       HGA1      1    LIG   HC15     47      0.090      1.008   ;
    48       HGA3      1    LIG   HC16     48      0.090      1.008   ;
    49       HGA3      1    LIG   HC17     49      0.090      1.008   ;
    50       HGA3      1    LIG   HC18     50      0.090      1.008   ;
    51       HGA2      1    LIG   HC19     51      0.090      1.008   ;
    52       HGA2      1    LIG   HC20     52      0.090      1.008   ;
    53       HGA3      1    LIG   HC21     53      0.090      1.008   ;
    54       HGA3      1    LIG   HC22     54      0.090      1.008   ;
    55       HGA3      1    LIG   HC23     55      0.090      1.008   ;
    56       HGP2      1    LIG    HN1     56      0.313      1.008   ;

[ bonds ]
;	ai	  aj funct			  c0			c1			  c2			c3
    1     4	 1 ;      CG3C31     CG2R61
    1     3	 1 ;      CG3C31     CG3C31
    1     2	 1 ;      CG3C31     CG3C31
    1    31	 1 ;      CG3C31       HGA1
    2     3	 1 ;      CG3C31     CG3C31
    2    32	 1 ;      CG3C31       HGA2
    2    33	 1 ;      CG3C31       HGA2
    3    18	 1 ;      CG3C31      CG301
    3    34	 1 ;      CG3C31       HGA1
    4     9	 1 ;      CG2R61     CG2R61
    4     5	 1 ;      CG2R61     CG2R61
    5     6	 1 ;      CG2R61     CG2R67
    5    35	 1 ;      CG2R61      HGR61
    6     7	 1 ;      CG2R67     CG2R61
    6    10	 1 ;      CG2R67     CG2R67
    7     8	 1 ;      CG2R61     CG2R61
    7    36	 1 ;      CG2R61      HGR61
    8     9	 1 ;      CG2R61     CG2R61
    8    37	 1 ;      CG2R61      HGR61
    9    38	 1 ;      CG2R61      HGR61
   10    11	 1 ;      CG2R67     CG2R61
   10    15	 1 ;      CG2R67     CG2R61
   11    12	 1 ;      CG2R61     CG2R61
   11    39	 1 ;      CG2R61      HGR61
   12    13	 1 ;      CG2R61     CG2R61
   12    40	 1 ;      CG2R61      HGR61
   13    14	 1 ;      CG2R61     CG2R61
   13    41	 1 ;      CG2R61      HGR61
   14    15	 1 ;      CG2R61     CG2R61
   14    42	 1 ;      CG2R61      HGR61
   15    16	 1 ;      CG2R61      OG301
   16    17	 1 ;       OG301      CG331
   17    43	 1 ;       CG331       HGA3
   17    44	 1 ;       CG331       HGA3
   17    45	 1 ;       CG331       HGA3
   18    19	 1 ;       CG301      NG3P2
   18    26	 1 ;       CG301      CG321
   18    27	 1 ;       CG301      CG331
   19    20	 1 ;       NG3P2      CG314
   19    21	 1 ;       NG3P2       HGP2
   19    46	 1 ;       NG3P2       HGP2
   20    28	 1 ;       CG314      NG3P3
   20    22	 1 ;       CG314      NG2S0
   20    47	 1 ;       CG314       HGA1
   22    23	 1 ;       NG2S0      CG331
   22    24	 1 ;       NG2S0      CG2O1
   23    48	 1 ;       CG331       HGA3
   23    49	 1 ;       CG331       HGA3
   23    50	 1 ;       CG331       HGA3
   24    25	 1 ;       CG2O1      OG2D1
   24    26	 1 ;       CG2O1      CG321
   26    51	 1 ;       CG321       HGA2
   26    52	 1 ;       CG321       HGA2
   27    53	 1 ;       CG331       HGA3
   27    54	 1 ;       CG331       HGA3
   27    55	 1 ;       CG331       HGA3
   28    29	 1 ;       NG3P3       HGP2
   28    30	 1 ;       NG3P3       HGP2
   28    56	 1 ;       NG3P3       HGP2

[ pairs ]
;	ai	  aj funct			  c0			c1			  c2			c3
    1    19	 1
    1    26	 1
    1    27	 1
    1     8	 1
    1    38	 1
    1     6	 1
    1    35	 1
    2     9	 1
    2     5	 1
    2    19	 1
    2    26	 1
    2    27	 1
    3     9	 1
    3     5	 1
    3    20	 1
    3    21	 1
    3    46	 1
    3    24	 1
    3    51	 1
    3    52	 1
    3    53	 1
    3    54	 1
    3    55	 1
    4    18	 1
    4    34	 1
    4    32	 1
    4    33	 1
    4     7	 1
    4    10	 1
    4    37	 1
    5    31	 1
    5     8	 1
    5    38	 1
    5    36	 1
    5    11	 1
    5    15	 1
    6     9	 1
    6    37	 1
    6    12	 1
    6    39	 1
    6    14	 1
    6    16	 1
    7    35	 1
    7    11	 1
    7    15	 1
    7    38	 1
    8    10	 1
    9    31	 1
    9    35	 1
    9    36	 1
   10    35	 1
   10    36	 1
   10    13	 1
   10    40	 1
   10    42	 1
   10    17	 1
   11    14	 1
   11    16	 1
   11    41	 1
   12    15	 1
   12    42	 1
   13    39	 1
   13    16	 1
   14    40	 1
   14    17	 1
   15    39	 1
   15    41	 1
   15    43	 1
   15    44	 1
   15    45	 1
   16    42	 1
   18    31	 1
   18    32	 1
   18    33	 1
   18    28	 1
   18    22	 1
   18    47	 1
   18    25	 1
   19    34	 1
   19    24	 1
   19    51	 1
   19    52	 1
   19    53	 1
   19    54	 1
   19    55	 1
   19    29	 1
   19    30	 1
   19    56	 1
   19    23	 1
   20    26	 1
   20    27	 1
   20    48	 1
   20    49	 1
   20    50	 1
   20    25	 1
   21    26	 1
   21    27	 1
   21    28	 1
   21    22	 1
   21    47	 1
   22    46	 1
   22    29	 1
   22    30	 1
   22    56	 1
   22    51	 1
   22    52	 1
   23    28	 1
   23    47	 1
   23    25	 1
   23    26	 1
   24    27	 1
   24    28	 1
   24    47	 1
   24    48	 1
   24    49	 1
   24    50	 1
   25    51	 1
   25    52	 1
   26    34	 1
   26    46	 1
   26    53	 1
   26    54	 1
   26    55	 1
   27    34	 1
   27    46	 1
   27    51	 1
   27    52	 1
   28    46	 1
   29    47	 1
   30    47	 1
   31    34	 1
   31    32	 1
   31    33	 1
   32    34	 1
   33    34	 1
   36    37	 1
   37    38	 1
   39    40	 1
   40    41	 1
   41    42	 1
   46    47	 1
   47    56	 1

[ angles ]
;	ai	  aj	ak funct			c0			  c1			c2			  c3
    4     1     3	5 ;     CG2R61     CG3C31     CG3C31
    4     1     2	5 ;     CG2R61     CG3C31     CG3C31
    4     1    31	5 ;     CG2R61     CG3C31       HGA1
    3     1     2	5 ;     CG3C31     CG3C31     CG3C31
    3     1    31	5 ;     CG3C31     CG3C31       HGA1
    2     1    31	5 ;     CG3C31     CG3C31       HGA1
    1     2     3	5 ;     CG3C31     CG3C31     CG3C31
    1     2    32	5 ;     CG3C31     CG3C31       HGA2
    1     2    33	5 ;     CG3C31     CG3C31       HGA2
    3     2    32	5 ;     CG3C31     CG3C31       HGA2
    3     2    33	5 ;     CG3C31     CG3C31       HGA2
   32     2    33	5 ;       HGA2     CG3C31       HGA2
    1     3    18	5 ;     CG3C31     CG3C31      CG301
    1     3     2	5 ;     CG3C31     CG3C31     CG3C31
    1     3    34	5 ;     CG3C31     CG3C31       HGA1
   18     3     2	5 ;      CG301     CG3C31     CG3C31
   18     3    34	5 ;      CG301     CG3C31       HGA1
    2     3    34	5 ;     CG3C31     CG3C31       HGA1
    9     4     5	5 ;     CG2R61     CG2R61     CG2R61
    9     4     1	5 ;     CG2R61     CG2R61     CG3C31
    5     4     1	5 ;     CG2R61     CG2R61     CG3C31
    6     5     4	5 ;     CG2R67     CG2R61     CG2R61
    6     5    35	5 ;     CG2R67     CG2R61      HGR61
    4     5    35	5 ;     CG2R61     CG2R61      HGR61
    7     6    10	5 ;     CG2R61     CG2R67     CG2R67
    7     6     5	5 ;     CG2R61     CG2R67     CG2R61
   10     6     5	5 ;     CG2R67     CG2R67     CG2R61
    8     7     6	5 ;     CG2R61     CG2R61     CG2R67
    8     7    36	5 ;     CG2R61     CG2R61      HGR61
    6     7    36	5 ;     CG2R67     CG2R61      HGR61
    7     8     9	5 ;     CG2R61     CG2R61     CG2R61
    7     8    37	5 ;     CG2R61     CG2R61      HGR61
    9     8    37	5 ;     CG2R61     CG2R61      HGR61
    8     9     4	5 ;     CG2R61     CG2R61     CG2R61
    8     9    38	5 ;     CG2R61     CG2R61      HGR61
    4     9    38	5 ;     CG2R61     CG2R61      HGR61
    6    10    11	5 ;     CG2R67     CG2R67     CG2R61
    6    10    15	5 ;     CG2R67     CG2R67     CG2R61
   11    10    15	5 ;     CG2R61     CG2R67     CG2R61
   12    11    10	5 ;     CG2R61     CG2R61     CG2R67
   12    11    39	5 ;     CG2R61     CG2R61      HGR61
   10    11    39	5 ;     CG2R67     CG2R61      HGR61
   11    12    13	5 ;     CG2R61     CG2R61     CG2R61
   11    12    40	5 ;     CG2R61     CG2R61      HGR61
   13    12    40	5 ;     CG2R61     CG2R61      HGR61
   12    13    14	5 ;     CG2R61     CG2R61     CG2R61
   12    13    41	5 ;     CG2R61     CG2R61      HGR61
   14    13    41	5 ;     CG2R61     CG2R61      HGR61
   13    14    15	5 ;     CG2R61     CG2R61     CG2R61
   13    14    42	5 ;     CG2R61     CG2R61      HGR61
   15    14    42	5 ;     CG2R61     CG2R61      HGR61
   10    15    14	5 ;     CG2R67     CG2R61     CG2R61
   10    15    16	5 ;     CG2R67     CG2R61      OG301
   14    15    16	5 ;     CG2R61     CG2R61      OG301
   17    16    15	5 ;      CG331      OG301     CG2R61
   16    17    43	5 ;      OG301      CG331       HGA3
   16    17    44	5 ;      OG301      CG331       HGA3
   16    17    45	5 ;      OG301      CG331       HGA3
   43    17    44	5 ;       HGA3      CG331       HGA3
   43    17    45	5 ;       HGA3      CG331       HGA3
   44    17    45	5 ;       HGA3      CG331       HGA3
   19    18     3	5 ;      NG3P2      CG301     CG3C31
   19    18    26	5 ;      NG3P2      CG301      CG321
   19    18    27	5 ;      NG3P2      CG301      CG331
    3    18    26	5 ;     CG3C31      CG301      CG321
    3    18    27	5 ;     CG3C31      CG301      CG331
   26    18    27	5 ;      CG321      CG301      CG331
   20    19    21	5 ;      CG314      NG3P2       HGP2
   20    19    18	5 ;      CG314      NG3P2      CG301
   20    19    46	5 ;      CG314      NG3P2       HGP2
   21    19    18	5 ;       HGP2      NG3P2      CG301
   21    19    46	5 ;       HGP2      NG3P2       HGP2
   18    19    46	5 ;      CG301      NG3P2       HGP2
   28    20    22	5 ;      NG3P3      CG314      NG2S0
   28    20    19	5 ;      NG3P3      CG314      NG3P2
   28    20    47	5 ;      NG3P3      CG314       HGA1
   22    20    19	5 ;      NG2S0      CG314      NG3P2
   22    20    47	5 ;      NG2S0      CG314       HGA1
   19    20    47	5 ;      NG3P2      CG314       HGA1
   23    22    20	5 ;      CG331      NG2S0      CG314
   23    22    24	5 ;      CG331      NG2S0      CG2O1
   20    22    24	5 ;      CG314      NG2S0      CG2O1
   22    23    48	5 ;      NG2S0      CG331       HGA3
   22    23    49	5 ;      NG2S0      CG331       HGA3
   22    23    50	5 ;      NG2S0      CG331       HGA3
   48    23    49	5 ;       HGA3      CG331       HGA3
   48    23    50	5 ;       HGA3      CG331       HGA3
   49    23    50	5 ;       HGA3      CG331       HGA3
   22    24    25	5 ;      NG2S0      CG2O1      OG2D1
   22    24    26	5 ;      NG2S0      CG2O1      CG321
   25    24    26	5 ;      OG2D1      CG2O1      CG321
   24    26    18	5 ;      CG2O1      CG321      CG301
   24    26    51	5 ;      CG2O1      CG321       HGA2
   24    26    52	5 ;      CG2O1      CG321       HGA2
   18    26    51	5 ;      CG301      CG321       HGA2
   18    26    52	5 ;      CG301      CG321       HGA2
   51    26    52	5 ;       HGA2      CG321       HGA2
   18    27    53	5 ;      CG301      CG331       HGA3
   18    27    54	5 ;      CG301      CG331       HGA3
   18    27    55	5 ;      CG301      CG331       HGA3
   53    27    54	5 ;       HGA3      CG331       HGA3
   53    27    55	5 ;       HGA3      CG331       HGA3
   54    27    55	5 ;       HGA3      CG331       HGA3
   29    28    30	5 ;       HGP2      NG3P3       HGP2
   29    28    20	5 ;       HGP2      NG3P3      CG314
   29    28    56	5 ;       HGP2      NG3P3       HGP2
   30    28    20	5 ;       HGP2      NG3P3      CG314
   30    28    56	5 ;       HGP2      NG3P3       HGP2
   20    28    56	5 ;      CG314      NG3P3       HGP2

[ dihedrals ]
;	ai	  aj	ak	  al funct			  c0			c1			  c2			c3			  c4			c5
    3     1     4     9	 9 ;     CG3C31     CG3C31     CG2R61     CG2R61
    3     1     4     5	 9 ;     CG3C31     CG3C31     CG2R61     CG2R61
    2     1     4     9	 9 ;     CG3C31     CG3C31     CG2R61     CG2R61
    2     1     4     5	 9 ;     CG3C31     CG3C31     CG2R61     CG2R61
   31     1     4     9	 9 ;       HGA1     CG3C31     CG2R61     CG2R61
   31     1     4     5	 9 ;       HGA1     CG3C31     CG2R61     CG2R61
    4     1     3    18	 9 ;     CG2R61     CG3C31     CG3C31      CG301
    4     1     3     2	 9 ;     CG2R61     CG3C31     CG3C31     CG3C31
    4     1     3    34	 9 ;     CG2R61     CG3C31     CG3C31       HGA1
    2     1     3    18	 9 ;     CG3C31     CG3C31     CG3C31      CG301
    2     1     3    34	 9 ;     CG3C31     CG3C31     CG3C31       HGA1
   31     1     3    18	 9 ;       HGA1     CG3C31     CG3C31      CG301
   31     1     3     2	 9 ;       HGA1     CG3C31     CG3C31     CG3C31
   31     1     3    34	 9 ;       HGA1     CG3C31     CG3C31       HGA1
    4     1     2     3	 9 ;     CG2R61     CG3C31     CG3C31     CG3C31
    4     1     2    32	 9 ;     CG2R61     CG3C31     CG3C31       HGA2
    4     1     2    33	 9 ;     CG2R61     CG3C31     CG3C31       HGA2
    3     1     2    32	 9 ;     CG3C31     CG3C31     CG3C31       HGA2
    3     1     2    33	 9 ;     CG3C31     CG3C31     CG3C31       HGA2
   31     1     2     3	 9 ;       HGA1     CG3C31     CG3C31     CG3C31
   31     1     2    32	 9 ;       HGA1     CG3C31     CG3C31       HGA2
   31     1     2    33	 9 ;       HGA1     CG3C31     CG3C31       HGA2
    1     2     3    18	 9 ;     CG3C31     CG3C31     CG3C31      CG301
    1     2     3    34	 9 ;     CG3C31     CG3C31     CG3C31       HGA1
   32     2     3     1	 9 ;       HGA2     CG3C31     CG3C31     CG3C31
   32     2     3    18	 9 ;       HGA2     CG3C31     CG3C31      CG301
   32     2     3    34	 9 ;       HGA2     CG3C31     CG3C31       HGA1
   33     2     3     1	 9 ;       HGA2     CG3C31     CG3C31     CG3C31
   33     2     3    18	 9 ;       HGA2     CG3C31     CG3C31      CG301
   33     2     3    34	 9 ;       HGA2     CG3C31     CG3C31       HGA1
    1     3    18    19	 9 ;     CG3C31     CG3C31      CG301      NG3P2
    1     3    18    26	 9 ;     CG3C31     CG3C31      CG301      CG321
    1     3    18    27	 9 ;     CG3C31     CG3C31      CG301      CG331
    2     3    18    19	 9 ;     CG3C31     CG3C31      CG301      NG3P2
    2     3    18    26	 9 ;     CG3C31     CG3C31      CG301      CG321
    2     3    18    27	 9 ;     CG3C31     CG3C31      CG301      CG331
   34     3    18    19	 9 ;       HGA1     CG3C31      CG301      NG3P2
   34     3    18    26	 9 ;       HGA1     CG3C31      CG301      CG321
   34     3    18    27	 9 ;       HGA1     CG3C31      CG301      CG331
    5     4     9     8	 9 ;     CG2R61     CG2R61     CG2R61     CG2R61
    5     4     9    38	 9 ;     CG2R61     CG2R61     CG2R61      HGR61
    1     4     9     8	 9 ;     CG3C31     CG2R61     CG2R61     CG2R61
    1     4     9    38	 9 ;     CG3C31     CG2R61     CG2R61      HGR61
    9     4     5     6	 9 ;     CG2R61     CG2R61     CG2R61     CG2R67
    9     4     5    35	 9 ;     CG2R61     CG2R61     CG2R61      HGR61
    1     4     5     6	 9 ;     CG3C31     CG2R61     CG2R61     CG2R67
    1     4     5    35	 9 ;     CG3C31     CG2R61     CG2R61      HGR61
    4     5     6     7	 9 ;     CG2R61     CG2R61     CG2R67     CG2R61
    4     5     6    10	 9 ;     CG2R61     CG2R61     CG2R67     CG2R67
   35     5     6     7	 9 ;      HGR61     CG2R61     CG2R67     CG2R61
   35     5     6    10	 9 ;      HGR61     CG2R61     CG2R67     CG2R67
   10     6     7     8	 9 ;     CG2R67     CG2R67     CG2R61     CG2R61
   10     6     7    36	 9 ;     CG2R67     CG2R67     CG2R61      HGR61
    5     6     7     8	 9 ;     CG2R61     CG2R67     CG2R61     CG2R61
    5     6     7    36	 9 ;     CG2R61     CG2R67     CG2R61      HGR61
    7     6    10    11	 9 ;     CG2R61     CG2R67     CG2R67     CG2R61
    7     6    10    15	 9 ;     CG2R61     CG2R67     CG2R67     CG2R61
    5     6    10    11	 9 ;     CG2R61     CG2R67     CG2R67     CG2R61
    5     6    10    15	 9 ;     CG2R61     CG2R67     CG2R67     CG2R61
    6     7     8     9	 9 ;     CG2R67     CG2R61     CG2R61     CG2R61
    6     7     8    37	 9 ;     CG2R67     CG2R61     CG2R61      HGR61
   36     7     8     9	 9 ;      HGR61     CG2R61     CG2R61     CG2R61
   36     7     8    37	 9 ;      HGR61     CG2R61     CG2R61      HGR61
    7     8     9     4	 9 ;     CG2R61     CG2R61     CG2R61     CG2R61
    7     8     9    38	 9 ;     CG2R61     CG2R61     CG2R61      HGR61
   37     8     9     4	 9 ;      HGR61     CG2R61     CG2R61     CG2R61
   37     8     9    38	 9 ;      HGR61     CG2R61     CG2R61      HGR61
    6    10    11    12	 9 ;     CG2R67     CG2R67     CG2R61     CG2R61
    6    10    11    39	 9 ;     CG2R67     CG2R67     CG2R61      HGR61
   15    10    11    12	 9 ;     CG2R61     CG2R67     CG2R61     CG2R61
   15    10    11    39	 9 ;     CG2R61     CG2R67     CG2R61      HGR61
    6    10    15    14	 9 ;     CG2R67     CG2R67     CG2R61     CG2R61
    6    10    15    16	 9 ;     CG2R67     CG2R67     CG2R61      OG301
   11    10    15    14	 9 ;     CG2R61     CG2R67     CG2R61     CG2R61
   11    10    15    16	 9 ;     CG2R61     CG2R67     CG2R61      OG301
   10    11    12    13	 9 ;     CG2R67     CG2R61     CG2R61     CG2R61
   10    11    12    40	 9 ;     CG2R67     CG2R61     CG2R61      HGR61
   39    11    12    13	 9 ;      HGR61     CG2R61     CG2R61     CG2R61
   39    11    12    40	 9 ;      HGR61     CG2R61     CG2R61      HGR61
   11    12    13    14	 9 ;     CG2R61     CG2R61     CG2R61     CG2R61
   11    12    13    41	 9 ;     CG2R61     CG2R61     CG2R61      HGR61
   40    12    13    14	 9 ;      HGR61     CG2R61     CG2R61     CG2R61
   40    12    13    41	 9 ;      HGR61     CG2R61     CG2R61      HGR61
   12    13    14    15	 9 ;     CG2R61     CG2R61     CG2R61     CG2R61
   12    13    14    42	 9 ;     CG2R61     CG2R61     CG2R61      HGR61
   41    13    14    15	 9 ;      HGR61     CG2R61     CG2R61     CG2R61
   41    13    14    42	 9 ;      HGR61     CG2R61     CG2R61      HGR61
   13    14    15    10	 9 ;     CG2R61     CG2R61     CG2R61     CG2R67
   13    14    15    16	 9 ;     CG2R61     CG2R61     CG2R61      OG301
   42    14    15    10	 9 ;      HGR61     CG2R61     CG2R61     CG2R67
   42    14    15    16	 9 ;      HGR61     CG2R61     CG2R61      OG301
   10    15    16    17	 9 ;     CG2R67     CG2R61      OG301      CG331
   14    15    16    17	 9 ;     CG2R61     CG2R61      OG301      CG331
   15    16    17    43	 9 ;     CG2R61      OG301      CG331       HGA3
   15    16    17    44	 9 ;     CG2R61      OG301      CG331       HGA3
   15    16    17    45	 9 ;     CG2R61      OG301      CG331       HGA3
    3    18    19    20	 9 ;     CG3C31      CG301      NG3P2      CG314
    3    18    19    21	 9 ;     CG3C31      CG301      NG3P2       HGP2
    3    18    19    46	 9 ;     CG3C31      CG301      NG3P2       HGP2
   26    18    19    20	 9 ;      CG321      CG301      NG3P2      CG314
   26    18    19    21	 9 ;      CG321      CG301      NG3P2       HGP2
   26    18    19    46	 9 ;      CG321      CG301      NG3P2       HGP2
   27    18    19    20	 9 ;      CG331      CG301      NG3P2      CG314
   27    18    19    21	 9 ;      CG331      CG301      NG3P2       HGP2
   27    18    19    46	 9 ;      CG331      CG301      NG3P2       HGP2
   19    18    26    24	 9 ;      NG3P2      CG301      CG321      CG2O1
   19    18    26    51	 9 ;      NG3P2      CG301      CG321       HGA2
   19    18    26    52	 9 ;      NG3P2      CG301      CG321       HGA2
    3    18    26    24	 9 ;     CG3C31      CG301      CG321      CG2O1
    3    18    26    51	 9 ;     CG3C31      CG301      CG321       HGA2
    3    18    26    52	 9 ;     CG3C31      CG301      CG321       HGA2
   27    18    26    24	 9 ;      CG331      CG301      CG321      CG2O1
   27    18    26    51	 9 ;      CG331      CG301      CG321       HGA2
   27    18    26    52	 9 ;      CG331      CG301      CG321       HGA2
   19    18    27    53	 9 ;      NG3P2      CG301      CG331       HGA3
   19    18    27    54	 9 ;      NG3P2      CG301      CG331       HGA3
   19    18    27    55	 9 ;      NG3P2      CG301      CG331       HGA3
    3    18    27    53	 9 ;     CG3C31      CG301      CG331       HGA3
    3    18    27    54	 9 ;     CG3C31      CG301      CG331       HGA3
    3    18    27    55	 9 ;     CG3C31      CG301      CG331       HGA3
   26    18    27    53	 9 ;      CG321      CG301      CG331       HGA3
   26    18    27    54	 9 ;      CG321      CG301      CG331       HGA3
   26    18    27    55	 9 ;      CG321      CG301      CG331       HGA3
   21    19    20    28	 9 ;       HGP2      NG3P2      CG314      NG3P3
   21    19    20    22	 9 ;       HGP2      NG3P2      CG314      NG2S0
   21    19    20    47	 9 ;       HGP2      NG3P2      CG314       HGA1
   18    19    20    28	 9 ;      CG301      NG3P2      CG314      NG3P3
   18    19    20    22	 9 ;      CG301      NG3P2      CG314      NG2S0
   18    19    20    47	 9 ;      CG301      NG3P2      CG314       HGA1
   46    19    20    28	 9 ;       HGP2      NG3P2      CG314      NG3P3
   46    19    20    22	 9 ;       HGP2      NG3P2      CG314      NG2S0
   46    19    20    47	 9 ;       HGP2      NG3P2      CG314       HGA1
   22    20    28    29	 9 ;      NG2S0      CG314      NG3P3       HGP2
   22    20    28    30	 9 ;      NG2S0      CG314      NG3P3       HGP2
   22    20    28    56	 9 ;      NG2S0      CG314      NG3P3       HGP2
   19    20    28    29	 9 ;      NG3P2      CG314      NG3P3       HGP2
   19    20    28    30	 9 ;      NG3P2      CG314      NG3P3       HGP2
   19    20    28    56	 9 ;      NG3P2      CG314      NG3P3       HGP2
   47    20    28    29	 9 ;       HGA1      CG314      NG3P3       HGP2
   47    20    28    30	 9 ;       HGA1      CG314      NG3P3       HGP2
   47    20    28    56	 9 ;       HGA1      CG314      NG3P3       HGP2
   28    20    22    23	 9 ;      NG3P3      CG314      NG2S0      CG331
   28    20    22    24	 9 ;      NG3P3      CG314      NG2S0      CG2O1
   19    20    22    23	 9 ;      NG3P2      CG314      NG2S0      CG331
   19    20    22    24	 9 ;      NG3P2      CG314      NG2S0      CG2O1
   47    20    22    23	 9 ;       HGA1      CG314      NG2S0      CG331
   47    20    22    24	 9 ;       HGA1      CG314      NG2S0      CG2O1
   20    22    23    48	 9 ;      CG314      NG2S0      CG331       HGA3
   20    22    23    49	 9 ;      CG314      NG2S0      CG331       HGA3
   20    22    23    50	 9 ;      CG314      NG2S0      CG331       HGA3
   24    22    23    48	 9 ;      CG2O1      NG2S0      CG331       HGA3
   24    22    23    49	 9 ;      CG2O1      NG2S0      CG331       HGA3
   24    22    23    50	 9 ;      CG2O1      NG2S0      CG331       HGA3
   23    22    24    25	 9 ;      CG331      NG2S0      CG2O1      OG2D1
   23    22    24    26	 9 ;      CG331      NG2S0      CG2O1      CG321
   20    22    24    25	 9 ;      CG314      NG2S0      CG2O1      OG2D1
   20    22    24    26	 9 ;      CG314      NG2S0      CG2O1      CG321
   22    24    26    18	 9 ;      NG2S0      CG2O1      CG321      CG301
   22    24    26    51	 9 ;      NG2S0      CG2O1      CG321       HGA2
   22    24    26    52	 9 ;      NG2S0      CG2O1      CG321       HGA2
   25    24    26    18	 9 ;      OG2D1      CG2O1      CG321      CG301
   25    24    26    51	 9 ;      OG2D1      CG2O1      CG321       HGA2
   25    24    26    52	 9 ;      OG2D1      CG2O1      CG321       HGA2

[ dihedrals ]
;	ai	  aj	ak	  al funct			  c0			c1			  c2			c3
   24    26    22    25	 2

