Georgetown Riga Oslo Madrid Amsterdam Chisinau Stockholm
   56
    1LIG     C1    1  -1.648   0.305  -1.679
    1LIG     C2    2  -1.720   0.235  -1.566
    1LIG     C3    3  -1.749   0.381  -1.592
    1LIG     C4    4  -1.498   0.321  -1.676
    1LIG     C5    5  -1.415   0.237  -1.597
    1LIG     C6    6  -1.275   0.252  -1.589
    1LIG     C7    7  -1.219   0.352  -1.670
    1LIG     C8    8  -1.296   0.430  -1.755
    1LIG     C9    9  -1.435   0.415  -1.758
    1LIG    C10   10  -1.189   0.165  -1.501
    1LIG    C11   11  -1.132   0.048  -1.555
    1LIG    C12   12  -1.045  -0.034  -1.482
    1LIG    C13   13  -1.012  -0.000  -1.352
    1LIG    C14   14  -1.069   0.114  -1.293
    1LIG    C15   15  -1.156   0.196  -1.366
    1LIG     O1   16  -1.211   0.310  -1.312
    1LIG    C16   17  -1.125   0.421  -1.288
    1LIG    C17   18  -1.726   0.485  -1.482
    1LIG     N1   19  -1.599   0.554  -1.499
    1LIG    C18   20  -1.588   0.681  -1.507
    1LIG     HN   21  -1.515   0.498  -1.504
    1LIG     N2   22  -1.694   0.768  -1.504
    1LIG    C19   23  -1.674   0.912  -1.515
    1LIG    C20   24  -1.823   0.725  -1.482
    1LIG     O2   25  -1.919   0.802  -1.470
    1LIG    C21   26  -1.847   0.578  -1.473
    1LIG    C22   27  -1.713   0.410  -1.347
    1LIG     N3   28  -1.461   0.729  -1.519
    1LIG     H1   29  -1.449   0.814  -1.571
    1LIG     H2   30  -1.401   0.655  -1.554
    1LIG     HC   31  -1.687   0.278  -1.778
    1LIG    HC2   32  -1.796   0.160  -1.588
    1LIG    HC3   33  -1.659   0.215  -1.478
    1LIG    HC1   34  -1.845   0.395  -1.643
    1LIG    HC4   35  -1.462   0.159  -1.540
    1LIG    HC5   36  -1.112   0.368  -1.666
    1LIG    HC6   37  -1.249   0.503  -1.819
    1LIG    HC7   38  -1.494   0.476  -1.824
    1LIG    HC8   39  -1.158   0.019  -1.656
    1LIG    HC9   40  -1.002  -0.122  -1.527
    1LIG   HC10   41  -0.944  -0.062  -1.295
    1LIG   HC11   42  -1.045   0.139  -1.191
    1LIG   HC12   43  -1.183   0.503  -1.246
    1LIG   HC13   44  -1.080   0.453  -1.382
    1LIG   HC14   45  -1.046   0.392  -1.219
    1LIG    HN2   46  -1.589   0.559  -1.398
    1LIG   HC15   47  -1.596   0.675  -1.615
    1LIG   HC16   48  -1.770   0.963  -1.511
    1LIG   HC17   49  -1.611   0.946  -1.433
    1LIG   HC18   50  -1.625   0.934  -1.610
    1LIG   HC19   51  -1.915   0.551  -1.554
    1LIG   HC20   52  -1.898   0.558  -1.379
    1LIG   HC21   53  -1.710   0.482  -1.266
    1LIG   HC22   54  -1.620   0.352  -1.347
    1LIG   HC23   55  -1.798   0.343  -1.334
    1LIG    HN1   56  -1.430   0.749  -1.425
   0.00000   0.00000   0.00000
